----- GAMESS execution script 'rungms' -----
This job is running on host nrlogin1
under operating system Linux at Tue Aug 8 10:36:08 EDT 2017
Available scratch disk space (Kbyte units) at beginning of the job is
Filesystem                1K-blocks      Used Available Use% Mounted on
qumulo.arc.internal:/home 671088640 144789504 526299136  22% /home
GAMESS temporary binary files will be written to /home/jchoward/dragon/chem/gamess_test/mp2_w_efp/change_dens_conv
GAMESS supplementary output files will be written to /home/jchoward/dragon/chem/gamess_test/mp2_w_efp/change_dens_conv
Copying input file g_cc.inp to your run's scratch directory...
cp g_cc.inp /home/jchoward/dragon/chem/gamess_test/mp2_w_efp/change_dens_conv/g_cc.F05
unset echo
/home/jchoward/newriver/src/gamess/gamess_ts/ddikick.x /home/jchoward/newriver/src/gamess/gamess_ts/gamess.00.x g_cc -ddi 1 1 nrlogin1 -scr /home/jchoward/dragon/chem/gamess_test/mp2_w_efp/change_dens_conv

 Distributed Data Interface kickoff program.
 Initiating 1 compute processes on 1 nodes to run the following command:
 /home/jchoward/newriver/src/gamess/gamess_ts/gamess.00.x g_cc 

          ******************************************************
          *         GAMESS VERSION = 18 AUG 2016 (R1)          *
          *             FROM IOWA STATE UNIVERSITY             *
          * M.W.SCHMIDT, K.K.BALDRIDGE, J.A.BOATZ, S.T.ELBERT, *
          *   M.S.GORDON, J.H.JENSEN, S.KOSEKI, N.MATSUNAGA,   *
          *          K.A.NGUYEN, S.J.SU, T.L.WINDUS,           *
          *       TOGETHER WITH M.DUPUIS, J.A.MONTGOMERY       *
          *         J.COMPUT.CHEM.  14, 1347-1363(1993)        *
          **************** 64 BIT INTEL VERSION ****************

  SINCE 1993, STUDENTS AND POSTDOCS WORKING AT IOWA STATE UNIVERSITY
  AND ALSO IN THEIR VARIOUS JOBS AFTER LEAVING ISU HAVE MADE IMPORTANT
  CONTRIBUTIONS TO THE CODE:
     IVANA ADAMOVIC, CHRISTINE AIKENS, YURI ALEXEEV, POOJA ARORA,
     ANDREY ASADCHEV, ROB BELL, PRADIPTA BANDYOPADHYAY, JONATHAN BENTZ,
     BRETT BODE, KURT BRORSEN, CALEB CARLIN, GALINA CHABAN, WEI CHEN,
     CHEOL HO CHOI, PAUL DAY, ALBERT DEFUSCO, NUWAN DESILVA, TIM DUDLEY,
     DMITRI FEDOROV, GRAHAM FLETCHER, MARK FREITAG, KURT GLAESEMANN,
     DAN KEMP, GRANT MERRILL, NORIYUKI MINEZAWA, JONATHAN MULLIN,
     TAKESHI NAGATA, SEAN NEDD, HEATHER NETZLOFF, BOSILJKA NJEGIC, RYAN OLSON,
     MIKE PAK, SPENCER PRUITT, LUKE ROSKOP, JIM SHOEMAKER, LYUDMILA SLIPCHENKO,
     TONY SMITH, SAROM SOK LEANG, JIE SONG, TETSUYA TAKETSUGU, SIMON WEBB,
     PENG XU, SOOHAENG YOO, FEDERICO ZAHARIEV

  ADDITIONAL CODE HAS BEEN PROVIDED BY COLLABORATORS IN OTHER GROUPS:
     IOWA STATE UNIVERSITY:
          JOE IVANIC, AARON WEST, LAIMUTIS BYTAUTAS, KLAUS RUEDENBERG
     UNIVERSITY OF TOKYO: KIMIHIKO HIRAO, TAKAHITO NAKAJIMA,
          TAKAO TSUNEDA, MUNEAKI KAMIYA, SUSUMU YANAGISAWA,
          KIYOSHI YAGI, MAHITO CHIBA, SEIKEN TOKURA, NAOAKI KAWAKAMI
     UNIVERSITY OF AARHUS: FRANK JENSEN
     UNIVERSITY OF IOWA: VISVALDAS KAIRYS, HUI LI
     NATIONAL INST. OF STANDARDS AND TECHNOLOGY: WALT STEVENS, DAVID GARMER
     UNIVERSITY OF PISA: BENEDETTA MENNUCCI, JACOPO TOMASI
     UNIVERSITY OF MEMPHIS: HENRY KURTZ, PRAKASHAN KORAMBATH
     UNIVERSITY OF ALBERTA: TOBY ZENG, MARIUSZ KLOBUKOWSKI
     UNIVERSITY OF NEW ENGLAND: MARK SPACKMAN
     MIE UNIVERSITY: HIROAKI UMEDA
     NAT. INST. OF ADVANCED INDUSTRIAL SCIENCE AND TECHNOLOGY: KAZUO KITAURA
     MICHIGAN STATE UNIVERSITY:
          KAROL KOWALSKI, MARTA WLOCH, JEFFREY GOUR, JESSE LUTZ,
          WEI LI, PIOTR PIECUCH
     UNIVERSITY OF SILESIA: MONIKA MUSIAL, STANISLAW KUCHARSKI
     FACULTES UNIVERSITAIRES NOTRE-DAME DE LA PAIX:
          OLIVIER QUINET, BENOIT CHAMPAGNE
     UNIVERSITY OF CALIFORNIA - SANTA BARBARA: BERNARD KIRTMAN
     INSTITUTE FOR MOLECULAR SCIENCE:
          KAZUYA ISHIMURA, MICHIO KATOUDA, AND SHIGERU NAGASE
     UNIVERSITY OF NOTRE DAME: ANNA POMOGAEVA, DAN CHIPMAN
     KYUSHU UNIVERSITY:
          HARUYUKI NAKANO,
          FENG LONG GU, JACEK KORCHOWIEC, MARCIN MAKOWSKI, AND YURIKO AOKI,
          HIROTOSHI MORI AND EISAKU MIYOSHI
     PENNSYLVANIA STATE UNIVERSITY:
          TZVETELIN IORDANOV, CHET SWALINA, JONATHAN SKONE,
          SHARON HAMMES-SCHIFFER
     WASEDA UNIVERSITY:
          MASATO KOBAYASHI, TOMOKO AKAMA, TSUGUKI TOUMA,
          TAKESHI YOSHIKAWA, YASUHIRO IKABATA, JUNJI SEINO,
          YUYA NAKAJIMA, HIROMI NAKAI
     NANJING UNIVERSITY: SHUHUA LI
     UNIVERSITY OF NEBRASKA:
          PEIFENG SU, DEJUN SI, NANDUN THELLAMUREGE, YALI WANG, HUI LI
     UNIVERSITY OF ZURICH: ROBERTO PEVERATI, KIM BALDRIDGE
     N. COPERNICUS UNIVERSITY AND JACKSON STATE UNIVERSITY:
          MARIA BARYSZ
     UNIVERSITY OF COPENHAGEN: Jimmy Kromann, CASPER STEINMANN
     TOKYO INSTITUTE OF TECHNOLOGY: HIROYA NAKATA
     NAGOYA UNIVERSITY: YOSHIO NISHIMOTO, STEPHAN IRLE
     MOSCOW STATE UNIVERSITY: VLADIMIR MIRONOV

 EXECUTION OF GAMESS BEGUN Tue Aug  8 10:36:08 2017

            ECHO OF THE FIRST FEW INPUT CARDS -
 INPUT CARD> $CONTRL ispher=1 scftyp=rhf mplevl=2 runtyp=energy units=bohr $end             
 INPUT CARD> $basis gbasis=accd  $end                                                       
 INPUT CARD> $scf dirscf=.f. conv=1.0d-10 $end                                              
 INPUT CARD> $mp2 method=1 nacore= 0 $end                                                   
 INPUT CARD> $system mwords=200 $end                                                        
 INPUT CARD> $DATA                                                                          
 INPUT CARD>title                                                                           
 INPUT CARD> C1                                                                             
 INPUT CARD>C 6.0 -1.436849485687333 -0.3488925770101448 -0.7104312013015602                
 INPUT CARD>C 6.0 -0.678674353638417 2.308621724762404 -0.4190089754447337                  
 INPUT CARD>O 8.0 0.19923949536853203 0.4189730706482088 1.3459820045875268                 
 INPUT CARD>H 1.0 -2.0072822161601933 3.65988173443908 0.38572900851848463                  
 INPUT CARD>H 1.0 0.7890872721306594 3.0991281812188602 -1.6259411517222693                 
 INPUT CARD>H 1.0 -0.43899471902613224 -1.4512321912847257 -2.1388676262452866              
 INPUT CARD>C 6.0 -4.017714605783907 -1.30195705486969 0.023152924580114902                 
 INPUT CARD>H 1.0 -4.867785229948919 -0.0933751476781454 1.4719908328544744                 
 INPUT CARD>H 1.0 -5.26685192551331 -1.3329542326274133 -1.6315630869676039                 
 INPUT CARD>H 1.0 -3.8974505449609316 -3.230749496100478 0.7698460806456178                 
 INPUT CARD>$END                                                                            
 INPUT CARD> $EFRAG                                                                         
 INPUT CARD> iscrelec=0 iscrpol=1 iscrdisp=1 coord=cart qmdisp=1                            
 INPUT CARD> FRAGNAME=FRAGNAME                                                              
 INPUT CARD>A01H1 3.561075513855 -0.44589221941  0.5861987156                               
 INPUT CARD>A02O1 5.116658382198 -0.79344120114 -0.355427250                                
 INPUT CARD>A03H3 6.400457058656 -1.15569036246  0.895883255                                
 INPUT CARD> $END                                                                           
 INPUT CARD>          RUNTYP=MAKEFP EFFECTIVE FRAGMENT POTENTIAL DATA FOLLOWS...            
 INPUT CARD>          FRAGNAMEEFP GENERATED AT Sat Jul 29 09:14:39 2017                     
 INPUT CARD> $FRAGNAME                                                                      
 INPUT CARD>EFP DATA FOR FRAGNAME SCFTYP=RHF     ... GENERATED WITH BASIS SET=XXX           
 INPUT CARD> COORDINATES (BOHR)                                                             
 INPUT CARD>A01H1      3.5610752403  -0.4458921852   0.5861986706   1.0078250  1.0          
 INPUT CARD>A02O1      5.1166579891  -0.7934411402  -0.3554272227  15.9949100  8.0          
 INPUT CARD>A03H3      6.4004565670  -1.1556902737   0.8958831860   1.0078250  1.0          
 INPUT CARD>BO21       4.3388666147  -0.6196666627   0.1153857239   0.0000000  0.0          
 INPUT CARD>BO32       5.7585572781  -0.9745657069   0.2702279817   0.0000000  0.0          
 INPUT CARD> STOP                                                                           
 INPUT CARD> MONOPOLES                                                                      
 INPUT CARD>A01H1     -0.5737670835   1.00000                                               
 INPUT CARD>A02O1     -7.7061860201   8.00000                                               
 INPUT CARD>A03H3     -0.5812110853   1.00000                                               
 INPUT CARD>BO21      -0.5577365255   0.00000                                               
 INPUT CARD>BO32      -0.5810992856   0.00000                                               
 INPUT CARD> STOP                                                                           
 INPUT CARD> DIPOLES                                                                        
 INPUT CARD>A01H1      -0.0687896405    0.0161397296    0.0209119279                        
 INPUT CARD>A02O1      -0.0792748697   -0.0099330441    0.7914668668                        
 INPUT CARD>A03H3       0.0626625258   -0.0167644604    0.0364145744                        
 INPUT CARD>BO21        0.2140023414   -0.0466288226   -0.1613738076                        
 INPUT CARD>BO32       -0.1579977218    0.0467360218   -0.2119251850                        
  200000000 WORDS OF MEMORY AVAILABLE

     BASIS OPTIONS
     -------------
     GBASIS=ACCD         IGAUSS=       0      POLAR=NONE    
     NDFUNC=       0     NFFUNC=       0     DIFFSP=       F
     NPFUNC=       0      DIFFS=       F     BASNAM=        


     RUN TITLE
     ---------
 title                                                                           

 THE POINT GROUP OF THE MOLECULE IS C1      
 THE ORDER OF THE PRINCIPAL AXIS IS     0

 ATOM      ATOMIC                      COORDINATES (BOHR)
           CHARGE         X                   Y                   Z
 C           6.0    -1.4368494857       -0.3488925770       -0.7104312013
 C           6.0    -0.6786743536        2.3086217248       -0.4190089754
 O           8.0     0.1992394954        0.4189730706        1.3459820046
 H           1.0    -2.0072822162        3.6598817344        0.3857290085
 H           1.0     0.7890872721        3.0991281812       -1.6259411517
 H           1.0    -0.4389947190       -1.4512321913       -2.1388676262
 C           6.0    -4.0177146058       -1.3019570549        0.0231529246
 H           1.0    -4.8677852299       -0.0933751477        1.4719908329
 H           1.0    -5.2668519255       -1.3329542326       -1.6315630870
 H           1.0    -3.8974505450       -3.2307494961        0.7698460806

          INTERNUCLEAR DISTANCES (ANGS.)
          ------------------------------

                1 C          2 C          3 O          4 H          5 H     

   1 C       0.0000000    1.4705167 *  1.4487516 *  2.2198486 *  2.2251762 *
   2 C       1.4705167 *  0.0000000    1.4450219 *  1.0894763 *  1.0891170 *
   3 O       1.4487516 *  1.4450219 *  0.0000000    2.1360882 *  2.1406171 *
   4 H       2.2198486 *  1.0894763 *  2.1360882 *  0.0000000    1.8468926 *
   5 H       2.2251762 *  1.0891170 *  2.1406171 *  1.8468926 *  0.0000000  
   6 H       1.0910933 *  2.1915773 *  2.1199601 *  3.1287132    2.5088281 *
   7 C       1.5067473 *  2.6129236 *  2.5097834 *  2.8395251 *  3.5574885  
   8 H       2.1560044 *  2.7442889 *  2.6958513 *  2.5625175 *  3.8082187  
   9 H       2.1486017 *  3.1654681    3.4218247    3.3309879    3.9712200  
  10 H       2.1528396 *  3.4481301    2.9193744 *  3.7865241    4.3563466  

                6 H          7 C          8 H          9 H         10 H     

   1 C       1.0910933 *  1.5067473 *  2.1560044 *  2.1486017 *  2.1528396 *
   2 C       2.1915773 *  2.6129236 *  2.7442889 *  3.1654681    3.4481301  
   3 O       2.1199601 *  2.5097834 *  2.6958513 *  3.4218247    2.9193744 *
   4 H       3.1287132    2.8395251 *  2.5625175 *  3.3309879    3.7865241  
   5 H       2.5088281 *  3.5574885    3.8082187    3.9712200    4.3563466  
   6 H       0.0000000    2.2139509 *  3.1080441    2.5696203 *  2.5700921 *
   7 C       2.2139509 *  0.0000000    1.0950801 *  1.0972475 *  1.0963365 *
   8 H       3.1080441    1.0950801 *  0.0000000    1.7810457 *  1.7770962 *
   9 H       2.5696203 *  1.0972475 *  1.7810457 *  0.0000000    1.7744137 *
  10 H       2.5700921 *  1.0963365 *  1.7770962 *  1.7744137 *  0.0000000  

  * ... LESS THAN  3.000


     ATOMIC BASIS SET
     ----------------
 THE CONTRACTED PRIMITIVE FUNCTIONS HAVE BEEN UNNORMALIZED
 THE CONTRACTED BASIS FUNCTIONS ARE NOW NORMALIZED TO UNITY

  SHELL TYPE  PRIMITIVE        EXPONENT          CONTRACTION COEFFICIENT(S)

 C         

      1   S       1          6665.0000000    0.000691583963
      1   S       2          1000.0000000    0.005325796153
      1   S       3           228.0000000    0.027060721042
      1   S       4            64.7100000    0.101656846141
      1   S       5            21.0600000    0.274574823617
      1   S       6             7.4950000    0.448294318924
      1   S       7             2.7970000    0.284902610715
      1   S       8             0.5215000    0.015194859206

      2   S       9          6665.0000000   -0.000293269653
      2   S      10          1000.0000000   -0.002318035474
      2   S      11           228.0000000   -0.011499786039
      2   S      12            64.7100000   -0.046826727010
      2   S      13            21.0600000   -0.128466168750
      2   S      14             7.4950000   -0.301266272463
      2   S      15             2.7970000   -0.255630702330
      2   S      16             0.5215000    1.093793361012

      3   S      17             0.1596000    1.000000000000

      4   P      18             9.4390000    0.056979251590
      4   P      19             2.0020000    0.313207211501
      4   P      20             0.5456000    0.760376741738

      5   P      21             0.1517000    1.000000000000

      6   D      22             0.5500000    1.000000000000

      7   S      23             0.0469000    1.000000000000

      8   P      24             0.0404100    1.000000000000

      9   D      25             0.1510000    1.000000000000

 C         

     10   S      26          6665.0000000    0.000691583963
     10   S      27          1000.0000000    0.005325796153
     10   S      28           228.0000000    0.027060721042
     10   S      29            64.7100000    0.101656846141
     10   S      30            21.0600000    0.274574823617
     10   S      31             7.4950000    0.448294318924
     10   S      32             2.7970000    0.284902610715
     10   S      33             0.5215000    0.015194859206

     11   S      34          6665.0000000   -0.000293269653
     11   S      35          1000.0000000   -0.002318035474
     11   S      36           228.0000000   -0.011499786039
     11   S      37            64.7100000   -0.046826727010
     11   S      38            21.0600000   -0.128466168750
     11   S      39             7.4950000   -0.301266272463
     11   S      40             2.7970000   -0.255630702330
     11   S      41             0.5215000    1.093793361012

     12   S      42             0.1596000    1.000000000000

     13   P      43             9.4390000    0.056979251590
     13   P      44             2.0020000    0.313207211501
     13   P      45             0.5456000    0.760376741738

     14   P      46             0.1517000    1.000000000000

     15   D      47             0.5500000    1.000000000000

     16   S      48             0.0469000    1.000000000000

     17   P      49             0.0404100    1.000000000000

     18   D      50             0.1510000    1.000000000000

 O         

     19   S      51         11720.0000000    0.000709645947
     19   S      52          1759.0000000    0.005467272292
     19   S      53           400.8000000    0.027823118610
     19   S      54           113.7000000    0.104747739711
     19   S      55            37.0300000    0.282920846357
     19   S      56            13.2700000    0.448495238698
     19   S      57             5.0250000    0.270816885213
     19   S      58             1.0130000    0.015450291607

     20   S      59         11720.0000000   -0.000314443412
     20   S      60          1759.0000000   -0.002482137681
     20   S      61           400.8000000   -0.012316355382
     20   S      62           113.7000000   -0.050538917344
     20   S      63            37.0300000   -0.139384903316
     20   S      64            13.2700000   -0.325077494818
     20   S      65             5.0250000   -0.229848307588
     20   S      66             1.0130000    1.095379346788

     21   S      67             0.3023000    1.000000000000

     22   P      68            17.7000000    0.062679166282
     22   P      69             3.8540000    0.333536565879
     22   P      70             1.0460000    0.741239641640

     23   P      71             0.2753000    1.000000000000

     24   D      72             1.1850000    1.000000000000

     25   S      73             0.0789600    1.000000000000

     26   P      74             0.0685600    1.000000000000

     27   D      75             0.3320000    1.000000000000

 H         

     28   S      76            13.0100000    0.033498726390
     28   S      77             1.9620000    0.234800801174
     28   S      78             0.4446000    0.813682957883

     29   S      79             0.1220000    1.000000000000

     30   P      80             0.7270000    1.000000000000

     31   S      81             0.0297400    1.000000000000

     32   P      82             0.1410000    1.000000000000

 H         

     33   S      83            13.0100000    0.033498726390
     33   S      84             1.9620000    0.234800801174
     33   S      85             0.4446000    0.813682957883

     34   S      86             0.1220000    1.000000000000

     35   P      87             0.7270000    1.000000000000

     36   S      88             0.0297400    1.000000000000

     37   P      89             0.1410000    1.000000000000

 H         

     38   S      90            13.0100000    0.033498726390
     38   S      91             1.9620000    0.234800801174
     38   S      92             0.4446000    0.813682957883

     39   S      93             0.1220000    1.000000000000

     40   P      94             0.7270000    1.000000000000

     41   S      95             0.0297400    1.000000000000

     42   P      96             0.1410000    1.000000000000

 C         

     43   S      97          6665.0000000    0.000691583963
     43   S      98          1000.0000000    0.005325796153
     43   S      99           228.0000000    0.027060721042
     43   S     100            64.7100000    0.101656846141
     43   S     101            21.0600000    0.274574823617
     43   S     102             7.4950000    0.448294318924
     43   S     103             2.7970000    0.284902610715
     43   S     104             0.5215000    0.015194859206

     44   S     105          6665.0000000   -0.000293269653
     44   S     106          1000.0000000   -0.002318035474
     44   S     107           228.0000000   -0.011499786039
     44   S     108            64.7100000   -0.046826727010
     44   S     109            21.0600000   -0.128466168750
     44   S     110             7.4950000   -0.301266272463
     44   S     111             2.7970000   -0.255630702330
     44   S     112             0.5215000    1.093793361012

     45   S     113             0.1596000    1.000000000000

     46   P     114             9.4390000    0.056979251590
     46   P     115             2.0020000    0.313207211501
     46   P     116             0.5456000    0.760376741738

     47   P     117             0.1517000    1.000000000000

     48   D     118             0.5500000    1.000000000000

     49   S     119             0.0469000    1.000000000000

     50   P     120             0.0404100    1.000000000000

     51   D     121             0.1510000    1.000000000000

 H         

     52   S     122            13.0100000    0.033498726390
     52   S     123             1.9620000    0.234800801174
     52   S     124             0.4446000    0.813682957883

     53   S     125             0.1220000    1.000000000000

     54   P     126             0.7270000    1.000000000000

     55   S     127             0.0297400    1.000000000000

     56   P     128             0.1410000    1.000000000000

 H         

     57   S     129            13.0100000    0.033498726390
     57   S     130             1.9620000    0.234800801174
     57   S     131             0.4446000    0.813682957883

     58   S     132             0.1220000    1.000000000000

     59   P     133             0.7270000    1.000000000000

     60   S     134             0.0297400    1.000000000000

     61   P     135             0.1410000    1.000000000000

 H         

     62   S     136            13.0100000    0.033498726390
     62   S     137             1.9620000    0.234800801174
     62   S     138             0.4446000    0.813682957883

     63   S     139             0.1220000    1.000000000000

     64   P     140             0.7270000    1.000000000000

     65   S     141             0.0297400    1.000000000000

     66   P     142             0.1410000    1.000000000000

 TOTAL NUMBER OF BASIS SET SHELLS             =   66
 NUMBER OF CARTESIAN GAUSSIAN BASIS FUNCTIONS =  154
 NOTE: THIS RUN WILL RESTRICT THE MO VARIATION SPACE TO SPHERICAL HARMONICS.
 THE NUMBER OF ORBITALS KEPT IN THE VARIATIONAL SPACE WILL BE PRINTED LATER.
 NUMBER OF ELECTRONS                          =   32
 CHARGE OF MOLECULE                           =    0
 SPIN MULTIPLICITY                            =    1
 NUMBER OF OCCUPIED ORBITALS (ALPHA)          =   16
 NUMBER OF OCCUPIED ORBITALS (BETA )          =   16
 TOTAL NUMBER OF ATOMS                        =   10
 THE NUCLEAR REPULSION ENERGY IS      124.0604480359

     $CONTRL OPTIONS
     ---------------
 SCFTYP=RHF          RUNTYP=ENERGY       EXETYP=RUN     
 MPLEVL=       2     CITYP =NONE         CCTYP =NONE         VBTYP =NONE    
 DFTTYP=NONE         TDDFT =NONE    
 MULT  =       1     ICHARG=       0     NZVAR =       0     COORD =UNIQUE  
 PP    =NONE         RELWFN=NONE         LOCAL =NONE         NUMGRD=       F
 ISPHER=       1     NOSYM =       0     MAXIT =      30     UNITS =BOHR    
 PLTORB=       F     MOLPLT=       F     AIMPAC=       F     FRIEND=        
 NPRINT=       7     IREST =       0     GEOM  =INPUT   
 NORMF =       0     NORMP =       0     ITOL  =      20     ICUT  =       9
 INTTYP=BEST         GRDTYP=BEST         QMTTOL= 1.0E-06

     $SYSTEM OPTIONS
     ---------------
  REPLICATED MEMORY=   200000000 WORDS (ON EVERY NODE).
 DISTRIBUTED MEMDDI=           0 MILLION WORDS IN AGGREGATE,
 MEMDDI DISTRIBUTED OVER   1 PROCESSORS IS           0 WORDS/PROCESSOR.
 TOTAL MEMORY REQUESTED ON EACH PROCESSOR=   200000000 WORDS.
 TIMLIM=      525600.00 MINUTES, OR     365.0 DAYS.
 PARALL= F  BALTYP=  DLB     KDIAG=    0  COREFL= F
 MXSEQ2=     300 MXSEQ3=     150  mem10=         0

 READING $EFRAG GROUP
 COORD=CART      POSITION=OPTIMIZE  POLMETHD=FRGSCF   NBUFFMO=0
 READING COORDINATES OF FRAGMENT   1 NAMED   FRAGNA
 FINISHED READING $EFRAG GROUP,   1 FRAGMENTS WILL BE USED.

 READING POTENTIAL PARAMETERS FOR FRAGMENT    1 FROM GROUP $FRAGNA


     SUMMARY OF THE EFFECTIVE FRAGMENT POTENTIAL MODEL CHOSEN
     --------------------------------------------------------
 TOTAL NUMBER OF MULTIPOLE POINTS   =         5  (EFP1/EFP2 ELECTROSTATICS)
 TOTAL NUMBER OF POLARIZABLE POINTS =         4  (EFP1/EFP2 INDUCTION)
 TOTAL NUMBER OF L-J POINTS         =         0  (REPULSION AND DISPERSION)
 TOTAL NUMBER OF AO CENTERS         =         3  (EFP2 PAULI REPULSION)
 TOTAL NUMBER OF EFP MOS            =         4  (EFP2 PAULI REPULSION)
 TOTAL NO OF DYNAMIC POLARIZABLE PTS=        48  (EFP2 DISPERSION)
 TOTAL NUMBER OF EFP MOS            =         7  (EFP2 CHARGE TRANSFER)

 THIS IS A -EFP2- TYPE RUN, INCLUDING SEPARATE FORMULAE FOR
   PAULI REPULSION=T  DISPERSION=T  CHARGE TRANSFER=T

 OPTIONS FOR EFP SCREENING:
     ELECTROSTATIC AB INITIO-EFP GAUSSIAN SCREENING IS ON
     ELECTROSTATIC EFP-EFP SCREENING CHOICE IS EXPONENTIAL, FOR CHARGE/CHARGE
     POLARIZATION EFP-EFP SCREENING IS TANG-TOENNIS LIKE
     DISPERSION EFP-EFP SCREENING CHOICE IS USING OVERLAP

     $EWALD OPTIONS
     -----------

     IFEWLD   =        F         TINFOIL        =        T
     BETA    =    0.200         ELECTRIC CONST =     1.00
     EPSILON =     1.00         CUT_OFF        = 0.10E+04
     CUTLIST =  1000.00         LEVEL          =    1
     KMAX    =       10         EWLDPL         =        F

            MULTIPOLE COORDINATES, ELECTRONIC AND NUCLEAR CHARGES

                  X              Y              Z           ELEC.   NUC.
 A01H1      3.5610755139  -0.4458922194   0.5861987156   -0.57377    1.0
 A02O1      5.1166582627  -0.7934411744  -0.3554271777   -7.70619    8.0
 A03H3      6.4004568405  -1.1556903079   0.8958832311   -0.58121    1.0
 BO21       4.3388668883  -0.6196666969   0.1153857689   -0.55774    0.0
 BO32       5.7585575517  -0.9745657411   0.2702280268   -0.58110    0.0

   CHARGE SCREENING PARAMETERS (COEF AND ZETA)
   ICHGP=   5 AI-FRAGMENT SCREENING= 1   FRAGMENT-FRAGMENT SCREENING= 2

             GAUSSIAN DAMPING    EXPONENTIAL DAMPING
 A01H1      1.00000   2.81756      1.00000   2.46988
 A02O1      1.00000   1.05507      1.00000   1.90648
 A03H3      1.00000   1.83022      1.00000   2.53512
 BO21       1.00000   0.60928      1.00000   1.97519
 BO32       1.00000   0.67145      1.00000   2.12744

   SCREENING FOR POLARIZATION WITH EXPONENTIAL FORMULA  OFF

   SCREENING FOR POLARIZATION WITH TANG-TOENNIS FORMULA   ON

    WITH COEFFICIENTS 

     FRAGNA  0.60

                  DIPOLE MOMENTS AND THE SECOND MOMENT TENSOR

                  X        Y        Z           XX/XY    YY/XZ    ZZ/YZ
 A01H1        -0.06879  0.01614  0.02091     -0.31869 -0.32324 -0.31982
                                             -0.00108 -0.00271  0.00053
 A02O1        -0.07927 -0.00993  0.79147     -3.28108 -4.35983 -3.64656
                                             -0.28454  0.04499 -0.04024
 A03H3         0.06266 -0.01676  0.03641     -0.32204 -0.32542 -0.32058
                                             -0.00100  0.00277 -0.00087
 BO21          0.21400 -0.04663 -0.16137     -0.13383 -0.28141 -0.23484
                                             -0.03654 -0.05023  0.01030
 BO32         -0.15800  0.04674 -0.21193     -0.18378 -0.29490 -0.22193
                                             -0.03225  0.07464 -0.02139

                  THE THIRD MOMENT TENSOR

               XXX/XYY  YYY/YYZ  ZZZ/XZZ  XXY/YZZ  XXZ/XYZ
 A01H1        -0.09074  0.02346 -0.01247  0.00716 -0.00576
              -0.03110 -0.00402 -0.03034  0.00763  0.00042
 A02O1        -0.21048 -0.02162  1.80764 -0.00068  0.68397
              -0.05531  0.56345 -0.04079 -0.01589 -0.03219
 A03H3         0.09238 -0.02349  0.00885 -0.00735  0.00164
               0.03123  0.00332  0.02987 -0.00742  0.00050
 BO21          0.64526 -0.12916 -0.48077 -0.05428 -0.17984
               0.20134 -0.16253  0.21301 -0.04653  0.00393
 BO32         -0.45599  0.12978 -0.63031  0.04994 -0.23111
              -0.14588 -0.20837 -0.16337  0.04826  0.00677

                  POLARIZABLE POINTS AND THE POLARIZABILITY TENSOR

              X       Y       Z       XX/YZ    YY/YX    ZZ/ZX    XY/ZY     XZ
 CT1       5.7778 -0.9821  0.3452   2.53666  1.06670  2.24147 -0.44447  1.41862
                                   -0.39726 -0.43708  1.22257 -0.34899
 CT2       4.3067 -0.6142  0.1825   3.21159  1.08538  1.73779 -0.50398 -1.27479
                                    0.28501 -0.51141 -1.07430  0.23556
 CT3       5.0275 -1.2753 -0.6383   1.70583  2.66499  2.20256  0.11012  0.24394
                                    1.22193  0.09370  0.21397  1.10982
 CT4       5.2657 -0.3066 -0.6022   1.83962  2.69955  2.03420  0.36982 -0.33069
                                   -1.15433  0.38675 -0.30450 -1.04141

                  DYNAMIC POLARIZABLE POINTS AND DYNAMIC TENSOR

              X       Y       Z       XX/YZ    YY/YX    ZZ/ZX    XY/ZY     XZ
 CT        5.7778 -0.9821  0.3452   2.53643  1.06659  2.24131 -0.44428  1.41871
                                   -0.39712 -0.43698  1.22237 -0.34884
 CT        4.3067 -0.6142  0.1825   3.21149  1.08530  1.73780 -0.50381 -1.27467
                                    0.28494 -0.51127 -1.07421  0.23564
 CT        5.0275 -1.2753 -0.6383   1.70593  2.66511  2.20254  0.11030  0.24439
                                    1.22203  0.09363  0.21400  1.10985
 CT        5.2657 -0.3066 -0.6022   1.83978  2.69964  2.03417  0.36993 -0.33069
                                   -1.15438  0.38676 -0.30442 -1.04119
 CT        5.7778 -0.9821  0.3452   2.53521  1.06625  2.24006 -0.44401  1.41767
                                   -0.39683 -0.43671  1.22123 -0.34852
 CT        4.3067 -0.6142  0.1825   3.20967  1.08496  1.73696 -0.50347 -1.27367
                                    0.28471 -0.51093 -1.07311  0.23539
 CT        5.0275 -1.2753 -0.6383   1.70515  2.66282  2.20108  0.11006  0.24398
                                    1.22002  0.09351  0.21381  1.10873
 CT        5.2657 -0.3066 -0.6022   1.83881  2.69732  2.03293  0.36942 -0.33015
                                   -1.15248  0.38613 -0.30410 -1.04018
 CT        5.7778 -0.9821  0.3452   2.52809  1.06428  2.23272 -0.44241  1.41160
                                   -0.39512 -0.43508  1.21459 -0.34667
 CT        4.3067 -0.6142  0.1825   3.19906  1.08293  1.73203 -0.50147 -1.26783
                                    0.28340 -0.50894 -1.06669  0.23393
 CT        5.0275 -1.2753 -0.6383   1.70057  2.64955  2.19258  0.10868  0.24161
                                    1.20841  0.09279  0.21271  1.10220
 CT        5.2657 -0.3066 -0.6022   1.83314  2.68384  2.02573  0.36645 -0.32703
                                   -1.14151  0.38249 -0.30225 -1.03428
 CT        5.7778 -0.9821  0.3452   2.50337  1.05745  2.20744 -0.43683  1.39063
                                   -0.38922 -0.42944  1.19187 -0.34034
 CT        4.3067 -0.6142  0.1825   3.16232  1.07592  1.71505 -0.49453 -1.24766
                                    0.27887 -0.50207 -1.04480  0.22898
 CT        5.0275 -1.2753 -0.6383   1.68469  2.60466  2.16341  0.10412  0.23371
                                    1.16961  0.09041  0.20895  1.07990
 CT        5.2657 -0.3066 -0.6022   1.81357  2.63825  2.00094  0.35648 -0.31657
                                   -1.10483  0.37034 -0.29592 -1.01411
 CT        5.7778 -0.9821  0.3452   2.43534  1.03879  2.13954 -0.42149  1.33359
                                   -0.37319 -0.41399  1.13212 -0.32365
 CT        4.3067 -0.6142  0.1825   3.06232  1.05675  1.66930 -0.47565 -1.19319
                                    0.26661 -0.48330 -0.98768  0.21607
 CT        5.0275 -1.2753 -0.6383   1.64112  2.48972  2.08601  0.09333  0.21422
                                    1.07351  0.08456  0.19894  1.02144
 CT        5.2657 -0.3066 -0.6022   1.76072  2.52148  1.93465  0.33155 -0.29057
                                   -1.01394  0.34046 -0.27934 -0.96087
 CT        5.7778 -0.9821  0.3452   2.27351  0.99441  1.98595 -0.38518  1.20189
                                   -0.33637 -0.37781  1.00378 -0.28765
 CT        4.3067 -0.6142  0.1825   2.83009  1.01119  1.56497 -0.43197 -1.06913
                                    0.23865 -0.43947 -0.86730  0.18901
 CT        5.0275 -1.2753 -0.6383   1.53784  2.25379  1.91574  0.07518  0.17770
                                    0.89195  0.07386  0.17687  0.89681
 CT        5.2657 -0.3066 -0.6022   1.63926  2.28168  1.78644  0.28340 -0.24124
                                   -0.84199  0.28486 -0.24413 -0.84594
 CT        5.7778 -0.9821  0.3452   1.94331  0.89994  1.69491 -0.31294  0.95066
                                   -0.26653 -0.30681  0.78583 -0.22599
 CT        4.3067 -0.6142  0.1825   2.37539  0.91425  1.36254 -0.34790 -0.83772
                                    0.18637 -0.35413 -0.67022  0.14518
 CT        5.0275 -1.2753 -0.6383   1.32694  1.86517  1.60899  0.05569  0.12721
                                    0.64078  0.06007  0.13761  0.68817
 CT        5.2657 -0.3066 -0.6022   1.40155  1.88662  1.51293  0.21435 -0.17311
                                   -0.60355  0.21007 -0.18618 -0.65028
 CT        5.7778 -0.9821  0.3452   1.40756  0.72404  1.24785 -0.20385  0.59411
                                   -0.16765 -0.20062  0.50719 -0.14628
 CT        4.3067 -0.6142  0.1825   1.67583  0.73403  1.03523 -0.22513 -0.51783
                                    0.11422 -0.22840 -0.43000  0.09262
 CT        5.0275 -1.2753 -0.6383   0.98107  1.34379  1.16873  0.04220  0.07533
                                    0.38776  0.04673  0.08553  0.43053
 CT        5.2657 -0.3066 -0.6022   1.02652  1.35734  1.10973  0.14078 -0.10573
                                   -0.36286  0.13629 -0.11684 -0.40540
 CT        5.7778 -0.9821  0.3452   0.78056  0.46478  0.71739 -0.09366  0.26081
                                   -0.07449 -0.09300  0.24309 -0.07013
 CT        4.3067 -0.6142  0.1825   0.89988  0.46954  0.61825 -0.10330 -0.22531
                                    0.04900 -0.10395 -0.20773  0.04467
 CT        5.0275 -1.2753 -0.6383   0.56578  0.77286  0.67320  0.02935  0.03502
                                    0.18998  0.03116  0.03887  0.20504
 CT        5.2657 -0.3066 -0.6022   0.58743  0.77954  0.64487  0.07600 -0.05326
                                   -0.17580  0.07419 -0.05696 -0.19089
 CT        5.7778 -0.9821  0.3452   0.28829  0.19965  0.27467 -0.02620  0.07063
                                   -0.02043 -0.02624  0.07167 -0.02068
 CT        4.3067 -0.6142  0.1825   0.32087  0.20084  0.24588 -0.02889 -0.06076
                                    0.01302 -0.02884 -0.06192  0.01331
 CT        5.0275 -1.2753 -0.6383   0.22081  0.30060  0.26129  0.01280  0.01180
                                    0.06619  0.01304  0.01221  0.06755
 CT        5.2657 -0.3066 -0.6022   0.22804  0.30291  0.25175  0.02802 -0.01886
                                   -0.06071  0.02777 -0.01915 -0.06210
 CT        5.7778 -0.9821  0.3452   0.05382  0.04129  0.05245 -0.00369  0.00975
                                   -0.00285 -0.00371  0.01026 -0.00297
 CT        4.3067 -0.6142  0.1825   0.05828  0.04140  0.04828 -0.00407 -0.00844
                                    0.00179 -0.00405 -0.00896  0.00191
 CT        5.0275 -1.2753 -0.6383   0.04366  0.05834  0.05065  0.00242  0.00216
                                    0.01192  0.00244  0.00218  0.01196
 CT        5.2657 -0.3066 -0.6022   0.04494  0.05876  0.04895  0.00510 -0.00336
                                   -0.01090  0.00508 -0.00336 -0.01095
 CT        5.7778 -0.9821  0.3452   0.00197  0.00155  0.00193 -0.00012  0.00031
                                   -0.00009 -0.00012  0.00033 -0.00010
 CT        4.3067 -0.6142  0.1825   0.00211  0.00156  0.00179 -0.00013 -0.00027
                                    0.00006 -0.00013 -0.00029  0.00006
 CT        5.0275 -1.2753 -0.6383   0.00164  0.00216  0.00188  0.00009  0.00008
                                    0.00043  0.00009  0.00008  0.00043
 CT        5.2657 -0.3066 -0.6022   0.00168  0.00217  0.00181  0.00018 -0.00012
                                   -0.00039  0.00018 -0.00012 -0.00039

                    AO EXPANSION POINTS                             LMO CENTROIDS

                X          Y          Z                         X          Y          Z

  A01H1       3.56108   -0.44589    0.58620       CT1         5.77783   -0.98209    0.34521
  A02O1       5.11666   -0.79344   -0.35543       CT2         4.30670   -0.61425    0.18248
  A03H3       6.40046   -1.15569    0.89588       CT3         5.02751   -1.27530   -0.63826
                                                  CT4         5.26573   -0.30663   -0.60225

          ----------------
          PROPERTIES INPUT
          ----------------

     MOMENTS            FIELD           POTENTIAL          DENSITY
 IEMOM =       1   IEFLD =       0   IEPOT =       0   IEDEN =       0
 WHERE =COMASS     WHERE =NUCLEI     WHERE =NUCLEI     WHERE =NUCLEI  
 OUTPUT=BOTH       OUTPUT=BOTH       OUTPUT=BOTH       OUTPUT=BOTH    
 IEMINT=       0   IEFINT=       0                     IEDINT=       0
                                                       MORB  =       0
          EXTRAPOLATION IN EFFECT
          SOSCF IN EFFECT
 ORBITAL PRINTING OPTION: NPREO=     1   154     2     1

     -------------------------------
     INTEGRAL TRANSFORMATION OPTIONS
     -------------------------------
     NWORD  =            0
     CUTOFF = 1.0E-09     MPTRAN =       0
     DIRTRF =       F     AOINTS =DUP     

          -----------------------------
          LOCALIZATION INPUT PARAMETERS
          -----------------------------
           LOCAL=BOYS          NOUTA=       4
          PRTLOC=       F      NOUTB=       0
          MAXLOC=     250     CVGLOC=1.00E-06
           FCORE=       T     SYMLOC=       F
          MOIDON=       F     EDCOMP=       F
          DIPDCM=       F      NPROT=       0
          QADDCM=       F     DEPRNT=       F
          POLNUM=       F     ORIENT=       F
          POLDYN=       F      VMTOL=1.50E-01
          NPRDTL=       2
          MOOUTA =      1    2    3    4

          ----------------------
          INTEGRAL INPUT OPTIONS
          ----------------------
 NOPK  =       1 NORDER=       0 SCHWRZ=       T

          -----------------------
          MP2 CONTROL INFORMATION
          -----------------------
          NACORE =        0  NBCORE =        0
          LMOMP2 =        F  AOINTS = DUP     
          METHOD =        1  NWORD  =               0
          MP2PRP =        F  OSPT   = NONE    
          CUTOFF = 1.00E-09  CPHFBS = BASISMO 
          CODE   = IMS     

          NUMBER OF CORE -A-  ORBITALS =     0
          NUMBER OF CORE -B-  ORBITALS =     0
          NUMBER OF OCC. -A-  ORBITALS =    16
          NUMBER OF OCC. -B-  ORBITALS =    16
          NUMBER OF MOLECULAR ORBITALS =   154
          NUMBER OF   BASIS  FUNCTIONS =   154


     ------------------------------------------
     THE POINT GROUP IS C1 , NAXIS= 0, ORDER= 1
     ------------------------------------------

 -- VARIATIONAL SPACE WILL BE RESTRICTED TO PURE SPHERICAL HARMONICS ONLY --
 AFTER EXCLUDING CONTAMINANT COMBINATIONS FROM THE CARTESIAN GAUSSIAN BASIS
 SET, THE NUMBER OF SPHERICAL HARMONICS KEPT IN THE VARIATION SPACE IS  146

     DIMENSIONS OF THE SYMMETRY SUBSPACES ARE
 A   =  146

 ..... DONE SETTING UP THE RUN .....
 STEP CPU TIME =     0.03 TOTAL CPU TIME =        0.0 (    0.0 MIN)
 TOTAL WALL CLOCK TIME=        0.0 SECONDS, CPU UTILIZATION IS  60.00%

          ********************
          1 ELECTRON INTEGRALS
          ********************
 TIME TO DO ORDINARY INTEGRALS=      0.02
 TIME TO DO FRAGMENT INTEGRALS=      0.11
 ...... END OF ONE-ELECTRON INTEGRALS ......
 STEP CPU TIME =     0.13 TOTAL CPU TIME =        0.2 (    0.0 MIN)
 TOTAL WALL CLOCK TIME=        0.2 SECONDS, CPU UTILIZATION IS  84.21%

          -------------
          GUESS OPTIONS
          -------------
          GUESS =HUCKEL            NORB  =       0          NORDER=       0
          MIX   =       F          PRTMO =       F          PUNMO =       F
          TOLZ  = 1.0E-08          TOLE  = 1.0E-05
          SYMDEN=       F          PURIFY=       F

 INITIAL GUESS ORBITALS GENERATED BY HUCKEL   ROUTINE.
 HUCKEL GUESS REQUIRES    180842 WORDS.

 STATISTICS FOR GENERATION OF SYMMETRY ORBITAL -Q- MATRIX
 NUMBER OF CARTESIAN ATOMIC ORBITALS=        154
 NUMBER OF SPHERICAL CONTAMINANTS DROPPED=     8
 NUMBER OF LINEARLY DEPENDENT MOS DROPPED=     0
 TOTAL NUMBER OF MOS IN VARIATION SPACE=     146

 SYMMETRIES FOR INITIAL GUESS ORBITALS FOLLOW.   BOTH SET(S).
    16 ORBITALS ARE OCCUPIED (    4 CORE ORBITALS).
     5=A        6=A        7=A        8=A        9=A       10=A       11=A   
    12=A       13=A       14=A       15=A       16=A       17=A       18=A   
    19=A       20=A       21=A       22=A       23=A       24=A       25=A   
    26=A   
 ...... END OF INITIAL ORBITAL SELECTION ......
 STEP CPU TIME =     0.02 TOTAL CPU TIME =        0.2 (    0.0 MIN)
 TOTAL WALL CLOCK TIME=        0.2 SECONDS, CPU UTILIZATION IS  85.71%

                    ----------------------
                    AO INTEGRAL TECHNOLOGY
                    ----------------------
     S,P,L SHELL ROTATED AXIS INTEGRALS, REPROGRAMMED BY
        KAZUYA ISHIMURA (IMS) AND JOSE SIERRA (SYNSTAR).
     S,P,D,L SHELL ROTATED AXIS INTEGRALS PROGRAMMED BY
        KAZUYA ISHIMURA (INSTITUTE FOR MOLECULAR SCIENCE).
     S,P,D,F,G SHELL TO TOTAL QUARTET ANGULAR MOMENTUM SUM 5,
        ERIC PROGRAM BY GRAHAM FLETCHER (ELORET AND NASA ADVANCED
        SUPERCOMPUTING DIVISION, AMES RESEARCH CENTER).
     S,P,D,F,G,L SHELL GENERAL RYS QUADRATURE PROGRAMMED BY
        MICHEL DUPUIS (PACIFIC NORTHWEST NATIONAL LABORATORY).

          --------------------
          2 ELECTRON INTEGRALS
          --------------------

 THE -PK- OPTION IS OFF, THE INTEGRALS ARE NOT IN SUPERMATRIX FORM.
 STORING   15000 INTEGRALS/RECORD ON DISK, USING 12 BYTES/INTEGRAL.
 TWO ELECTRON INTEGRAL EVALUATION REQUIRES   92607 WORDS OF MEMORY.
 SCHWARZ INEQUALITY OVERHEAD:     11935 INTEGRALS, T=        0.01
 II,JST,KST,LST =  1  1  1  1 NREC =         1 INTLOC =    1
 II,JST,KST,LST =  2  1  1  1 NREC =         1 INTLOC =    2
 II,JST,KST,LST =  3  1  1  1 NREC =         1 INTLOC =    7
 II,JST,KST,LST =  4  1  1  1 NREC =         1 INTLOC =   22
 II,JST,KST,LST =  5  1  1  1 NREC =         1 INTLOC =   67
 II,JST,KST,LST =  6  1  1  1 NREC =         1 INTLOC =  214
 II,JST,KST,LST =  7  1  1  1 NREC =         1 INTLOC = 1189
 II,JST,KST,LST =  8  1  1  1 NREC =         1 INTLOC = 1589
 II,JST,KST,LST =  9  1  1  1 NREC =         1 INTLOC = 2864
 II,JST,KST,LST = 10  1  1  1 NREC =         1 INTLOC = 7967
 II,JST,KST,LST = 11  1  1  1 NREC =         2 INTLOC = 1768
 II,JST,KST,LST = 12  1  1  1 NREC =         2 INTLOC =11623
 II,JST,KST,LST = 13  1  1  1 NREC =         3 INTLOC = 7613
 II,JST,KST,LST = 14  1  1  1 NREC =         6 INTLOC = 3083
 II,JST,KST,LST = 15  1  1  1 NREC =         9 INTLOC =11480
 II,JST,KST,LST = 16  1  1  1 NREC =        20 INTLOC =  530
 II,JST,KST,LST = 17  1  1  1 NREC =        22 INTLOC = 3355
 II,JST,KST,LST = 18  1  1  1 NREC =        29 INTLOC =10255
 II,JST,KST,LST = 19  1  1  1 NREC =        49 INTLOC = 3433
 II,JST,KST,LST = 20  1  1  1 NREC =        53 INTLOC = 9784
 II,JST,KST,LST = 21  1  1  1 NREC =        58 INTLOC = 5114
 II,JST,KST,LST = 22  1  1  1 NREC =        63 INTLOC = 4579
 II,JST,KST,LST = 23  1  1  1 NREC =        79 INTLOC =14223
 II,JST,KST,LST = 24  1  1  1 NREC =        99 INTLOC = 6495
 II,JST,KST,LST = 25  1  1  1 NREC =       148 INTLOC =  493
 II,JST,KST,LST = 26  1  1  1 NREC =       157 INTLOC = 7618
 II,JST,KST,LST = 27  1  1  1 NREC =       188 INTLOC = 7010
 II,JST,KST,LST = 28  1  1  1 NREC =       262 INTLOC =12632
 II,JST,KST,LST = 29  1  1  1 NREC =       277 INTLOC = 7158
 II,JST,KST,LST = 30  1  1  1 NREC =       292 INTLOC =10463
 II,JST,KST,LST = 31  1  1  1 NREC =       342 INTLOC =  245
 II,JST,KST,LST = 32  1  1  1 NREC =       359 INTLOC =10928
 II,JST,KST,LST = 33  1  1  1 NREC =       416 INTLOC =13324
 II,JST,KST,LST = 34  1  1  1 NREC =       437 INTLOC = 5428
 II,JST,KST,LST = 35  1  1  1 NREC =       458 INTLOC = 8499
 II,JST,KST,LST = 36  1  1  1 NREC =       526 INTLOC =10993
 II,JST,KST,LST = 37  1  1  1 NREC =       551 INTLOC =  459
 II,JST,KST,LST = 38  1  1  1 NREC =       628 INTLOC =13247
 II,JST,KST,LST = 39  1  1  1 NREC =       656 INTLOC = 8566
 II,JST,KST,LST = 40  1  1  1 NREC =       685 INTLOC = 2301
 II,JST,KST,LST = 41  1  1  1 NREC =       776 INTLOC = 6175
 II,JST,KST,LST = 42  1  1  1 NREC =       808 INTLOC =11294
 II,JST,KST,LST = 43  1  1  1 NREC =       911 INTLOC =11536
 II,JST,KST,LST = 44  1  1  1 NREC =       947 INTLOC = 5705
 II,JST,KST,LST = 45  1  1  1 NREC =       984 INTLOC =11942
 II,JST,KST,LST = 46  1  1  1 NREC =      1023 INTLOC = 5598
 II,JST,KST,LST = 47  1  1  1 NREC =      1145 INTLOC = 8414
 II,JST,KST,LST = 48  1  1  1 NREC =      1278 INTLOC = 8975
 II,JST,KST,LST = 49  1  1  1 NREC =      1578 INTLOC =  337
 II,JST,KST,LST = 50  1  1  1 NREC =      1632 INTLOC =10025
 II,JST,KST,LST = 51  1  1  1 NREC =      1804 INTLOC =13863
 II,JST,KST,LST = 52  1  1  1 NREC =      2188 INTLOC =14965
 II,JST,KST,LST = 53  1  1  1 NREC =      2258 INTLOC = 9156
 II,JST,KST,LST = 54  1  1  1 NREC =      2330 INTLOC = 2233
 II,JST,KST,LST = 55  1  1  1 NREC =      2550 INTLOC =14961
 II,JST,KST,LST = 56  1  1  1 NREC =      2629 INTLOC = 5548
 II,JST,KST,LST = 57  1  1  1 NREC =      2875 INTLOC = 2825
 II,JST,KST,LST = 58  1  1  1 NREC =      2959 INTLOC = 3172
 II,JST,KST,LST = 59  1  1  1 NREC =      3046 INTLOC =10677
 II,JST,KST,LST = 60  1  1  1 NREC =      3303 INTLOC = 8743
 II,JST,KST,LST = 61  1  1  1 NREC =      3398 INTLOC =11292
 II,JST,KST,LST = 62  1  1  1 NREC =      3696 INTLOC = 4105
 II,JST,KST,LST = 63  1  1  1 NREC =      3797 INTLOC =   32
 II,JST,KST,LST = 64  1  1  1 NREC =      3902 INTLOC = 8220
 II,JST,KST,LST = 65  1  1  1 NREC =      4213 INTLOC = 2376
 II,JST,KST,LST = 66  1  1  1 NREC =      4327 INTLOC = 6309
 SCHWARZ INEQUALITY TEST SKIPPED       10655 INTEGRAL BLOCKS.
 TOTAL NUMBER OF NONZERO TWO-ELECTRON INTEGRALS =            70240114
       4683 INTEGRAL RECORDS WERE STORED ON DISK FILE  8.
  ...... END OF TWO-ELECTRON INTEGRALS .....
 STEP CPU TIME =     4.60 TOTAL CPU TIME =        4.8 (    0.1 MIN)
 TOTAL WALL CLOCK TIME=        5.2 SECONDS, CPU UTILIZATION IS  92.64%

 EFP ADDITIVE CONTRIBUTIONS TO THE "NUCLEAR ENERGY":
   -- NUCLEAR CHARGE - NUCLEAR CHARGE   =      124.0604480359
   -- NUCLEAR CHARGE - EFP CHARGE       =        0.1899536332
   -- NUCLEAR CHARGE - EFP DIPOLE       =        0.0526798027
   -- NUCLEAR CHARGE - EFP QUADRUPOLE   =        0.1130231106
   -- NUCLEAR CHARGE - EFP OCTUPOLE     =        0.0008531313
 THE TOTAL NUCLEAR CHARGE/EFP ENERGY    =      124.4169577139

          --------------------------
                 RHF SCF CALCULATION
          --------------------------

     NUCLEAR ENERGY =       124.4169577139
     MAXIT =   30     NPUNCH=    2
     EXTRAP=T  DAMP=F  SHIFT=F  RSTRCT=F  DIIS=F  DEM=F  SOSCF=T
     DENSITY MATRIX CONV=  1.00E-10
     SOSCF WILL OPTIMIZE    2080 ORBITAL ROTATIONS, SOGTOL=   0.250
     MEMORY REQUIRED FOR RHF ITERS=    337347 WORDS.

 ITER EX DEM     TOTAL ENERGY        E CHANGE  DENSITY CHANGE     ORB. GRAD
   1  0  0     -191.2980455594  -191.2980455594   0.648320271   0.000000000
          ---------------START SECOND ORDER SCF---------------
   2  1  0     -191.8645316242    -0.5664860648   1.981835330   0.048602529
   3  2  0     -191.9505732103    -0.0860415860   3.458954133   0.019804070
   4  3  0     -191.8293528327     0.1212203775   4.518161376   0.010230983
   5  4  0     -191.9737593819    -0.1444065492   8.391442574   0.009612313
   6  5  0     -191.9764331601    -0.0026737782   1.918609495   0.003552897
   7  6  0     -191.9771735289    -0.0007403688   0.200204875   0.000748998
   8  7  0     -191.7133252896     0.2638482392   0.016621149   0.000255536
   9  8  0     -191.9772323045    -0.2639070148   0.005598526   0.000187684
  10  9  0     -191.9772334761    -0.0000011716   0.008919769   0.000132281
  11 10  0     -191.9772340945    -0.0000006185   0.005456690   0.000063304
  12 11  0     -191.7136850877     0.2635490069   0.001814130   0.000021534
  13 12  0     -191.9772343709    -0.2635492832   0.001133231   0.000007470
  14 13  0     -191.9772343753    -0.0000000045   0.000449314   0.000002979
  15 14  0     -191.9772343758    -0.0000000004   0.000031557   0.000000916
  16 15  0     -191.7137222743     0.2635121015   0.000011293   0.000000413
  17 16  0     -191.9772343758    -0.2635121015   0.000010831   0.000000125
  18 17  0     -191.9772343758     0.0000000000   0.000003519   0.000000043
  19 18  0     -191.9772343758    -0.0000000000   0.000001818   0.000000021
  20 19  0     -191.7137222276     0.2635121483   0.000000000   0.000000008

          -----------------
          DENSITY CONVERGED
          -----------------
     TIME TO FORM FOCK OPERATORS=      30.2 SECONDS (       1.5 SEC/ITER)
     TIME TO SOLVE SCF EQUATIONS=       0.1 SECONDS (       0.0 SEC/ITER)

          -------------------------
          BOYS ORBITAL LOCALIZATION
          -------------------------
          S.F.BOYS, IN "QUANTUM THEORY OF ATOMS, MOLECULES, AND SOLIDS"
          P.O.LOWDIN, ED. ACADEMIC PRESS, NY, 1966 PP253-266.

          THIS LOCALIZATION REQUIRES     61073 WORDS OF MEMORY.
          THIS LOCALIZATION HAS   16 ORBITALS, OF WHICH   4 ARE FROZEN.

          THE INITIAL LOCALIZATION SUM IS    287.551008 DEBYE**2
          BOYS ITERATION  10 ORBITAL CHANGE=    1.4176904110E-03
          BOYS ITERATION  20 ORBITAL CHANGE=    2.0524646213E-06
          BOYS ITERATION  30 ORBITAL CHANGE=    4.0265948673E-09
          LOCALIZATION CONVERGED IN  34 ITERATIONS
            THE FINAL LOCALIZATION SUM IS    759.891824 DEBYE**2

          THE BOYS LOCALIZED ORBITALS ARE

                      1          2          3          4          5

    1  C  1  S   -0.000053  -1.002042  -0.062961  -0.004365  -0.006483
    2  C  1  S   -0.000181  -0.007546  -0.000593  -0.000180   0.130102
    3  C  1  S   -0.001626   0.036946   0.016200   0.007214  -0.200618
    4  C  1  X   -0.000402  -0.000998   0.000093  -0.000146   0.166856
    5  C  1  Y    0.000008  -0.000882   0.000090  -0.000070  -0.012913
    6  C  1  Z   -0.000517  -0.001345   0.000037   0.000024   0.239177
    7  C  1  X   -0.005178   0.000244   0.007449  -0.012150   0.097785
    8  C  1  Y   -0.002765   0.009406   0.016420  -0.007026   0.068182
    9  C  1  Z   -0.004082   0.005180   0.002224   0.003660   0.023435
   10  C  1 XX   -0.000091   0.000003   0.000098  -0.000095  -0.000248
   11  C  1 YY    0.000205  -0.000091  -0.000247   0.000041  -0.021985
   12  C  1 ZZ   -0.000114   0.000087   0.000149   0.000053   0.022233
   13  C  1 XY   -0.000038  -0.000284  -0.000095  -0.000049   0.010921
   14  C  1 XZ   -0.000169  -0.000087   0.000003   0.000037   0.045160
   15  C  1 YZ   -0.000187  -0.000340   0.000042   0.000070   0.010470
   16  C  1  S   -0.007314   0.011035  -0.005170  -0.001211  -0.223624
   17  C  1  X    0.000242  -0.001771   0.000898  -0.003500  -0.167498
   18  C  1  Y   -0.001735   0.001701   0.000427  -0.003324  -0.270750
   19  C  1  Z   -0.001253   0.001603  -0.000929  -0.000075  -0.087858
   20  C  1 XX    0.001747  -0.001504  -0.002311   0.002557  -0.047336
   21  C  1 YY   -0.000423   0.003297   0.003995  -0.002458   0.079535
   22  C  1 ZZ   -0.001324  -0.001793  -0.001685  -0.000098  -0.032199
   23  C  1 XY   -0.001007   0.004040   0.001313   0.000478  -0.006875
   24  C  1 XZ   -0.002501   0.000776   0.001757  -0.001570   0.033108
   25  C  1 YZ   -0.001355   0.001451   0.001149  -0.000579  -0.002382
   26  C  2  S   -0.000104  -0.062558   1.001902  -0.000072  -0.006815
   27  C  2  S   -0.000267  -0.000277   0.007322  -0.000350  -0.001605
   28  C  2  S    0.000513  -0.014054  -0.037328   0.006422  -0.114331
   29  C  2  X   -0.000337  -0.000016   0.000381   0.000075   0.003801
   30  C  2  Y    0.000275   0.000321  -0.001408   0.000079  -0.012180
   31  C  2  Z   -0.000528  -0.000126   0.001131   0.000062   0.006222
   32  C  2  X   -0.000795   0.002701   0.003392  -0.000573   0.012410
   33  C  2  Y    0.002520   0.014172   0.013339  -0.004995   0.027474
   34  C  2  Z   -0.001499  -0.000402  -0.000015  -0.000637   0.090976
   35  C  2 XX    0.000004  -0.000120  -0.000203  -0.000064  -0.010082
   36  C  2 YY    0.000008   0.000195   0.000390   0.000066   0.019114
   37  C  2 ZZ   -0.000012  -0.000074  -0.000187  -0.000002  -0.009032
   38  C  2 XY    0.000175   0.000155  -0.000093  -0.000125  -0.002648
   39  C  2 XZ    0.000037   0.000170  -0.000163  -0.000027  -0.005500
   40  C  2 YZ    0.000240   0.000134  -0.000272   0.000038  -0.012032
   41  C  2  S    0.004660  -0.003068  -0.002342   0.008294   0.367190
   42  C  2  X   -0.000336   0.000966   0.000004  -0.000201   0.002822
   43  C  2  Y   -0.000828   0.001261  -0.000303  -0.002889  -0.049149
   44  C  2  Z   -0.000075  -0.000114   0.000407   0.000037  -0.001331
   45  C  2 XX    0.000676   0.001376   0.002558  -0.000409  -0.019288
   46  C  2 YY   -0.000896  -0.002703  -0.004721   0.000565   0.021535
   47  C  2 ZZ    0.000220   0.001327   0.002163  -0.000155  -0.002248
   48  C  2 XY    0.000363  -0.000970  -0.001670   0.000482  -0.020575
   49  C  2 XZ   -0.001270  -0.000526  -0.000828   0.000257   0.032558
   50  C  2 YZ    0.000497  -0.000146   0.000557   0.000231  -0.027494
   51  O  3  S   -1.001951  -0.000187   0.000198   0.000003  -0.007306
   52  O  3  S   -0.002835  -0.000528   0.000523  -0.000012   0.180833
   53  O  3  S    0.012780  -0.000695   0.000241   0.000037   0.169854
   54  O  3  X    0.000713   0.000191  -0.000099   0.000034  -0.249012
   55  O  3  Y   -0.000376   0.000059   0.000264   0.000046  -0.309501
   56  O  3  Z    0.001603   0.000337  -0.000253   0.000018  -0.255678
   57  O  3  X   -0.002721  -0.000035   0.000681   0.000282  -0.174013
   58  O  3  Y    0.000763   0.001014   0.000236  -0.000287  -0.251692
   59  O  3  Z   -0.004388  -0.000980   0.001144  -0.000030  -0.165217
   60  O  3 XX    0.000087   0.000030   0.000029  -0.000019  -0.000064
   61  O  3 YY    0.000015  -0.000052  -0.000027   0.000018  -0.008753
   62  O  3 ZZ   -0.000103   0.000022  -0.000002   0.000000   0.008817
   63  O  3 XY   -0.000021   0.000042   0.000035  -0.000023   0.006777
   64  O  3 XZ   -0.000036   0.000058  -0.000007  -0.000008   0.015559
   65  O  3 YZ    0.000026   0.000037   0.000074  -0.000009   0.009930
   66  O  3  S    0.006164   0.000286  -0.000041   0.000039  -0.045082
   67  O  3  X   -0.001051  -0.000298  -0.000107  -0.000022  -0.039929
   68  O  3  Y   -0.000130  -0.000338  -0.001154  -0.000662  -0.051300
   69  O  3  Z   -0.001022  -0.000805   0.000406   0.000029   0.099141
   70  O  3 XX   -0.000279  -0.000292   0.000235  -0.000012   0.012276
   71  O  3 YY   -0.000184  -0.000170   0.000141  -0.000067  -0.017433
   72  O  3 ZZ    0.000463   0.000461  -0.000376   0.000079   0.005158
   73  O  3 XY   -0.000007  -0.000155   0.000265   0.000056   0.013814
   74  O  3 XZ    0.000904   0.000770  -0.000719  -0.000052   0.019815
   75  O  3 YZ   -0.000308  -0.000205   0.000436   0.000116   0.022774
   76  H  4  S    0.000066   0.000225   0.000287  -0.000064   0.013477
   77  H  4  S   -0.001953  -0.005071   0.003906   0.001742  -0.003144
   78  H  4  X    0.000073   0.000014  -0.000039  -0.000029   0.000332
   79  H  4  Y   -0.000147  -0.000192  -0.000005   0.000125  -0.000774
   80  H  4  Z   -0.000010  -0.000053   0.000009   0.000024   0.000009
   81  H  4  S    0.000137  -0.000156   0.000570   0.001097   0.023282
   82  H  4  X   -0.000015  -0.000802   0.001708   0.000374  -0.024792
   83  H  4  Y    0.000537   0.001107  -0.000873  -0.000218  -0.002288
   84  H  4  Z   -0.000184   0.000560  -0.000882  -0.000354   0.018550
   85  H  5  S    0.000013   0.000201   0.000337   0.000005   0.016308
   86  H  5  S   -0.002801  -0.005674   0.003235   0.000297   0.187989
   87  H  5  X   -0.000056  -0.000098  -0.000038   0.000005  -0.002157
   88  H  5  Y   -0.000166  -0.000187  -0.000031   0.000050   0.000155
   89  H  5  Z    0.000115   0.000070  -0.000012   0.000015  -0.000458
   90  H  5  S    0.000253  -0.000742   0.000613   0.000817   0.042464
   91  H  5  X    0.000271   0.001064  -0.001336  -0.000151  -0.007830
   92  H  5  Y    0.000445   0.000704  -0.000014   0.000142  -0.048993
   93  H  5  Z   -0.000065  -0.000885   0.001273   0.000099   0.025114
   94  H  6  S    0.000062  -0.000382  -0.000188  -0.000146  -0.003245
   95  H  6  S   -0.001348  -0.001166   0.005388   0.003709   0.157922
   96  H  6  X   -0.000007   0.000070   0.000013   0.000089   0.000297
   97  H  6  Y    0.000140  -0.000049  -0.000118   0.000057   0.003021
   98  H  6  Z    0.000146  -0.000020  -0.000061  -0.000000   0.009989
   99  H  6  S   -0.000693   0.001132  -0.000330   0.000026  -0.048880
  100  H  6  X   -0.000614   0.001096  -0.000499  -0.000577   0.022908
  101  H  6  Y   -0.000393   0.000031   0.000931   0.000480   0.058773
  102  H  6  Z   -0.000333  -0.000700   0.000785   0.000900   0.034274
  103  C  7  S   -0.000008  -0.003901  -0.000508   1.003876  -0.001691
  104  C  7  S   -0.000006   0.000267  -0.000244   0.007539  -0.013403
  105  C  7  S   -0.003605  -0.003311   0.003729  -0.037786   0.072619
  106  C  7  X    0.000010  -0.000114  -0.000099   0.000161  -0.015545
  107  C  7  Y   -0.000014  -0.000028  -0.000064   0.000087  -0.005497
  108  C  7  Z   -0.000008   0.000059   0.000016  -0.000111   0.000285
  109  C  7  X   -0.001619  -0.006589   0.003991  -0.008541   0.134212
  110  C  7  Y   -0.000940  -0.002256   0.001263  -0.003561   0.064214
  111  C  7  Z    0.001288   0.001494  -0.000147   0.002095   0.035954
  112  C  7 XX    0.000016   0.000031   0.000010  -0.000168   0.011015
  113  C  7 YY    0.000031  -0.000047  -0.000009   0.000061  -0.003951
  114  C  7 ZZ   -0.000048   0.000015  -0.000001   0.000107  -0.007064
  115  C  7 XY    0.000081  -0.000049  -0.000101  -0.000117   0.003657
  116  C  7 XZ    0.000024  -0.000056  -0.000056   0.000095   0.007594
  117  C  7 YZ   -0.000009   0.000029   0.000060   0.000030   0.002618
  118  C  7  S    0.001360  -0.002941   0.002220  -0.013723  -0.286668
  119  C  7  X    0.000141  -0.001167   0.000650  -0.002319  -0.081359
  120  C  7  Y    0.000569  -0.001155   0.000374  -0.000393   0.056074
  121  C  7  Z    0.000091  -0.000123  -0.000298   0.001139   0.057270
  122  C  7 XX    0.000271  -0.001980   0.001094  -0.001592   0.025076
  123  C  7 YY   -0.000577   0.001025  -0.000455   0.000757   0.001049
  124  C  7 ZZ    0.000307   0.000955  -0.000639   0.000835  -0.026125
  125  C  7 XY   -0.000294  -0.000366   0.000816  -0.001498   0.021501
  126  C  7 XZ    0.000292   0.000747   0.000103   0.000605   0.000339
  127  C  7 YZ    0.000812  -0.000799   0.000053   0.000194   0.008126
  128  H  8  S   -0.000050   0.000150  -0.000072   0.000503  -0.007797
  129  H  8  S   -0.001717  -0.000526   0.001697   0.005671   0.016849
  130  H  8  X   -0.000000   0.000026  -0.000076  -0.000029  -0.001518
  131  H  8  Y   -0.000024   0.000049  -0.000020   0.000167  -0.001585
  132  H  8  Z   -0.000058   0.000032   0.000034   0.000159   0.000003
  133  H  8  S    0.000010   0.000107   0.000113  -0.000584  -0.059783
  134  H  8  X   -0.000297  -0.000192   0.000252   0.001347  -0.003052
  135  H  8  Y    0.000403   0.000138  -0.000065  -0.000903  -0.000536
  136  H  8  Z    0.000135  -0.000059  -0.000234  -0.001319   0.005384
  137  H  9  S    0.000028   0.000008   0.000076   0.000425   0.023068
  138  H  9  S    0.000304  -0.002354   0.002020   0.006314   0.188523
  139  H  9  X    0.000031   0.000015   0.000027  -0.000100   0.000806
  140  H  9  Y    0.000048  -0.000010   0.000018   0.000008   0.000230
  141  H  9  Z    0.000024   0.000002   0.000017  -0.000233  -0.000623
  142  H  9  S   -0.000096  -0.000727  -0.000008   0.000433  -0.017314
  143  H  9  X    0.000393  -0.000412   0.000803   0.001601   0.035945
  144  H  9  Y    0.000280  -0.000327   0.000329   0.000152   0.004216
  145  H  9  Z   -0.000129  -0.000289   0.000170   0.001408   0.032702
  146  H 10  S    0.000086   0.000066   0.000029   0.000406  -0.012815
  147  H 10  S    0.000673  -0.004935   0.001328   0.006119   0.022424
  148  H 10  X   -0.000022   0.000076  -0.000044   0.000078  -0.001838
  149  H 10  Y   -0.000030   0.000039   0.000014  -0.000187  -0.000569
  150  H 10  Z   -0.000002  -0.000028   0.000012   0.000065   0.000147
  151  H 10  S    0.000283  -0.000666   0.000536   0.000385   0.027057
  152  H 10  X   -0.000205   0.000180   0.000177   0.000369  -0.009901
  153  H 10  Y    0.000057  -0.001346   0.000280   0.002025  -0.000112
  154  H 10  Z    0.000106   0.000247   0.000064  -0.000882   0.013010

                      6          7          8          9         10

    1  C  1  S   -0.009180   0.003249  -0.001890  -0.001020   0.003185
    2  C  1  S    0.225938  -0.031726  -0.021792  -0.021663   0.024426
    3  C  1  S    0.280812  -0.237994  -0.079968  -0.265255   0.047127
    4  C  1  X   -0.334649  -0.056670   0.005611  -0.003250  -0.001424
    5  C  1  Y   -0.124272  -0.006881   0.013603  -0.035890   0.039255
    6  C  1  Z    0.115918  -0.057284  -0.028335   0.004721  -0.010705
    7  C  1  X   -0.253318   0.232309  -0.026639   0.146646   0.135228
    8  C  1  Y   -0.138551   0.259474  -0.041067   0.087232   0.216900
    9  C  1  Z    0.024924  -0.032056  -0.009315   0.063505   0.028187
   10  C  1 XX    0.019594  -0.013544   0.013403   0.002670   0.006635
   11  C  1 YY   -0.009726   0.000296  -0.005748  -0.001764  -0.007362
   12  C  1 ZZ   -0.009868   0.013248  -0.007655  -0.000906   0.000727
   13  C  1 XY    0.011734  -0.010086   0.005192   0.009720   0.012971
   14  C  1 XZ   -0.017499  -0.008517   0.013490  -0.000747  -0.000593
   15  C  1 YZ   -0.007512  -0.004195   0.003937  -0.012342  -0.004473
   16  C  1  S    0.326102  -0.527055  -0.250087  -0.203015  -0.353577
   17  C  1  X    0.185745  -0.401112  -0.114142  -0.216930  -0.166534
   18  C  1  Y    0.274766  -0.598526  -0.197133  -0.338209  -0.304780
   19  C  1  Z    0.074146  -0.140846  -0.062023  -0.105058  -0.094641
   20  C  1 XX    0.051433  -0.086406   0.012415  -0.085543  -0.080818
   21  C  1 YY   -0.039453   0.113002  -0.015553   0.067325   0.070189
   22  C  1 ZZ   -0.011980  -0.026595   0.003138   0.018218   0.010628
   23  C  1 XY   -0.039072   0.052220   0.008087   0.038281   0.016511
   24  C  1 XZ   -0.076781   0.185400   0.046150   0.105017   0.089058
   25  C  1 YZ   -0.002921   0.039154   0.004430   0.031730   0.030090
   26  C  2  S   -0.000879   0.001497   0.000190  -0.009946   0.012108
   27  C  2  S   -0.019776  -0.035021  -0.002154   0.222503  -0.215385
   28  C  2  S    0.122100  -0.355999   0.026883  -0.070895  -0.301237
   29  C  2  X    0.016710  -0.039534   0.002498   0.278267   0.235069
   30  C  2  Y    0.028501   0.044536   0.003902   0.146708  -0.246834
   31  C  2  Z    0.018134  -0.051007   0.003302  -0.220956  -0.161889
   32  C  2  X    0.068076  -0.053471  -0.043965  -0.001084   0.045845
   33  C  2  Y   -0.006436   0.111120  -0.037818   0.036867   0.076024
   34  C  2  Z   -0.032731   0.036618   0.027796   0.011294   0.003606
   35  C  2 XX    0.007418  -0.001451  -0.000548   0.009489  -0.004754
   36  C  2 YY   -0.005418  -0.013813   0.000857  -0.010412   0.001543
   37  C  2 ZZ   -0.002000   0.015264  -0.000309   0.000923   0.003211
   38  C  2 XY    0.013478   0.010857  -0.001387   0.010487   0.014261
   39  C  2 XZ    0.001126  -0.003600  -0.000194  -0.014917   0.011389
   40  C  2 YZ   -0.004153   0.001871  -0.000687  -0.004959  -0.014805
   41  C  2  S   -0.475352   1.004604   0.325387   0.419823   0.600938
   42  C  2  X   -0.009796   0.003125  -0.001265  -0.028120  -0.033558
   43  C  2  Y    0.089295  -0.179551  -0.060108  -0.046650  -0.106031
   44  C  2  Z    0.018618  -0.033908  -0.002623   0.010872   0.009303
   45  C  2 XX   -0.006235   0.002699  -0.021872  -0.057617   0.019457
   46  C  2 YY   -0.006221   0.013218   0.023955   0.078310  -0.036591
   47  C  2 ZZ    0.012457  -0.015916  -0.002083  -0.020693   0.017135
   48  C  2 XY   -0.011418  -0.020831  -0.010186  -0.027778  -0.062850
   49  C  2 XZ   -0.022516   0.041892   0.015901   0.075985  -0.009931
   50  C  2 YZ    0.013495  -0.016892   0.005934   0.002241   0.035464
   51  O  3  S   -0.004286   0.003407   0.001833   0.002287   0.004059
   52  O  3  S   -0.025071   0.348494   0.016749  -0.006043   0.025127
   53  O  3  S    0.021793   0.360207   0.004530  -0.094370  -0.004018
   54  O  3  X    0.017227  -0.104542  -0.010191  -0.000407  -0.004145
   55  O  3  Y    0.022609  -0.016516  -0.016659  -0.033490   0.030916
   56  O  3  Z    0.010106   0.455043  -0.014710   0.021721  -0.003092
   57  O  3  X    0.006287  -0.083762  -0.011647   0.011511   0.006284
   58  O  3  Y    0.019778  -0.004443  -0.017143  -0.023779   0.029284
   59  O  3  Z   -0.022760   0.342416  -0.000290   0.043740   0.025796
   60  O  3 XX    0.004676   0.004713  -0.001489  -0.004255  -0.001531
   61  O  3 YY    0.000423   0.004287  -0.000005   0.002077  -0.003672
   62  O  3 ZZ   -0.005100  -0.009000   0.001494   0.002179   0.005203
   63  O  3 XY    0.003084  -0.000334  -0.000664   0.004078   0.003492
   64  O  3 XZ    0.001347  -0.003781  -0.000067  -0.003155  -0.000646
   65  O  3 YZ    0.000423   0.002928  -0.000150  -0.002550  -0.001049
   66  O  3  S    0.070559  -0.136271  -0.012360  -0.115531  -0.076777
   67  O  3  X    0.028454  -0.060580  -0.027509  -0.027842  -0.030462
   68  O  3  Y    0.039560  -0.068027  -0.027855  -0.046696  -0.031066
   69  O  3  Z   -0.117667   0.273164   0.064537   0.167652   0.112675
   70  O  3 XX   -0.003250   0.030546   0.006149   0.003897   0.007085
   71  O  3 YY    0.000941   0.004833   0.000068   0.003023  -0.006794
   72  O  3 ZZ    0.002309  -0.035378  -0.006218  -0.006921  -0.000291
   73  O  3 XY    0.002806  -0.002536   0.000472   0.002510   0.004449
   74  O  3 XZ    0.004624  -0.001397  -0.000790  -0.005607  -0.003016
   75  O  3 YZ    0.000349   0.003144   0.000136  -0.005442   0.000686
   76  H  4  S   -0.012432  -0.017940   0.004546  -0.033062  -0.441617
   77  H  4  S   -0.037442  -0.045367  -0.035172  -0.096269  -0.361208
   78  H  4  X    0.001561  -0.000214  -0.000641   0.008060  -0.021507
   79  H  4  Y    0.000700   0.000460  -0.000611   0.001892   0.021946
   80  H  4  Z   -0.000475  -0.002355  -0.000006  -0.005241   0.013023
   81  H  4  S   -0.046947   0.069217   0.024761  -0.001535   0.004467
   82  H  4  X    0.002390  -0.024385  -0.021573  -0.051161  -0.048527
   83  H  4  Y    0.014329  -0.029623   0.001388  -0.031255   0.040049
   84  H  4  Z   -0.011243   0.042664   0.011703   0.046657   0.025549
   85  H  5  S    0.011112   0.014753  -0.000515   0.442302   0.033355
   86  H  5  S   -0.124098   0.322246   0.146695   0.549764   0.203655
   87  H  5  X    0.003366  -0.004451  -0.000123  -0.027963   0.004450
   88  H  5  Y   -0.000481   0.002878   0.001615  -0.012012  -0.004310
   89  H  5  Z    0.000204  -0.003008  -0.000299   0.019278  -0.005614
   90  H  5  S   -0.025337   0.079496   0.029617   0.085549   0.065092
   91  H  5  X    0.007746  -0.024560  -0.013993  -0.046867  -0.030376
   92  H  5  Y    0.053284  -0.106406  -0.035468  -0.105608  -0.018953
   93  H  5  Z   -0.017647   0.050135   0.028905   0.071391   0.041297
   94  H  6  S   -0.034478   0.016696  -0.006851  -0.011698  -0.012603
   95  H  6  S   -0.271577   0.426605   0.062927   0.234528   0.133372
   96  H  6  X   -0.005156  -0.004104   0.000078  -0.003633  -0.001928
   97  H  6  Y   -0.003293  -0.000086   0.001681  -0.001656   0.000507
   98  H  6  Z    0.003474  -0.004151  -0.000940  -0.000048  -0.000737
   99  H  6  S    0.028576  -0.086205  -0.037838  -0.060402  -0.067288
  100  H  6  X   -0.013837   0.057533   0.030779   0.051500   0.042710
  101  H  6  Y   -0.043658   0.108167   0.016291   0.065939   0.036719
  102  H  6  Z   -0.054447   0.076664   0.013552   0.059723   0.032201
  103  C  7  S   -0.010745  -0.003732  -0.010494  -0.002266  -0.002238
  104  C  7  S    0.184029  -0.017599   0.191043   0.005370   0.006944
  105  C  7  S    0.061290   0.163320   0.027532   0.126818   0.136303
  106  C  7  X    0.323348  -0.011338  -0.213019   0.011908   0.009445
  107  C  7  Y    0.121585  -0.006627  -0.000169   0.006804   0.008494
  108  C  7  Z   -0.084489  -0.000214  -0.305546  -0.001880   0.001021
  109  C  7  X    0.089905   0.242457  -0.070227   0.180405   0.148497
  110  C  7  Y   -0.020506   0.178903   0.026941   0.123023   0.099231
  111  C  7  Z   -0.050630  -0.003679  -0.086799  -0.024989  -0.003738
  112  C  7 XX    0.024604   0.000423  -0.000663   0.002018  -0.000520
  113  C  7 YY   -0.011068  -0.001804  -0.013425  -0.002524   0.000921
  114  C  7 ZZ   -0.013537   0.001381   0.014088   0.000506  -0.000401
  115  C  7 XY    0.017479   0.002542   0.001009   0.000862   0.002977
  116  C  7 XZ   -0.013678  -0.002484   0.019303   0.000573   0.000341
  117  C  7 YZ   -0.005317  -0.001443  -0.001032   0.000214  -0.001015
  118  C  7  S    0.278272  -0.685908  -0.146692  -0.407538  -0.295942
  119  C  7  X    0.099825  -0.205934  -0.052179  -0.113363  -0.088800
  120  C  7  Y   -0.049631   0.099621   0.040760   0.059183   0.050512
  121  C  7  Z   -0.058994   0.104349   0.031473   0.065509   0.057200
  122  C  7 XX   -0.002374   0.049106   0.000839   0.017326   0.020239
  123  C  7 YY   -0.011956   0.006034   0.031718   0.016984   0.003022
  124  C  7 ZZ    0.014330  -0.055140  -0.032557  -0.034311  -0.023260
  125  C  7 XY   -0.021661   0.062079   0.003745   0.049011   0.026374
  126  C  7 XZ   -0.006830   0.025089  -0.009792  -0.004642  -0.007508
  127  C  7 YZ   -0.001763   0.019115   0.017043  -0.005249  -0.000100
  128  H  8  S   -0.019116  -0.007751  -0.023504   0.000808   0.001233
  129  H  8  S   -0.072988   0.150637  -0.043391   0.127310   0.052823
  130  H  8  X    0.009143  -0.000937  -0.005716  -0.000716  -0.000061
  131  H  8  Y    0.002301  -0.001000  -0.002899  -0.001247  -0.001429
  132  H  8  Z   -0.003620   0.000841  -0.011118  -0.000327  -0.000579
  133  H  8  S    0.072114  -0.130430  -0.045434  -0.068961  -0.065812
  134  H  8  X   -0.016667   0.014126   0.008460   0.016879   0.009196
  135  H  8  Y    0.001090  -0.026286  -0.006837  -0.021461  -0.005392
  136  H  8  Z    0.005316  -0.016393   0.009957  -0.014655  -0.002174
  137  H  9  S   -0.024514  -0.000125   0.436127   0.002156  -0.002249
  138  H  9  S   -0.103493   0.101360   0.256835   0.120443   0.100357
  139  H  9  X    0.008644  -0.000923   0.020955  -0.000597  -0.000172
  140  H  9  Y    0.003395  -0.000592   0.001314  -0.000379  -0.000272
  141  H  9  Z   -0.000764  -0.000169   0.024231  -0.000074  -0.000063
  142  H  9  S    0.025443  -0.060266  -0.010832  -0.029736  -0.018658
  143  H  9  X   -0.023878   0.013411   0.025936   0.014542   0.015400
  144  H  9  Y   -0.007593   0.010317   0.004599   0.003621   0.001572
  145  H  9  Z   -0.009191   0.006101   0.030041   0.022062   0.018985
  146  H 10  S   -0.020250   0.002071  -0.019431  -0.006748  -0.000606
  147  H 10  S   -0.114353   0.230262  -0.003974   0.076679   0.091443
  148  H 10  X    0.007870  -0.000939  -0.006752   0.000997   0.000452
  149  H 10  Y    0.004333   0.000327   0.003709   0.001089   0.000238
  150  H 10  Z   -0.002270  -0.000302  -0.010198  -0.000387   0.000043
  151  H 10  S   -0.025482   0.046988   0.016151   0.031401   0.024057
  152  H 10  X   -0.015903  -0.000854   0.008168   0.007505   0.000953
  153  H 10  Y   -0.023786   0.051765   0.017257   0.014600   0.017842
  154  H 10  Z    0.006139  -0.000816   0.014181   0.005778  -0.000632

                     11         12         13         14         15

    1  C  1  S   -0.007998  -0.003127   0.007658  -0.005578  -0.005133
    2  C  1  S   -0.001168  -0.020556  -0.223812  -0.023168  -0.024872
    3  C  1  S    0.001617   0.020897   0.025499   0.006413   0.596044
    4  C  1  X    0.009181   0.032371  -0.185559   0.029693  -0.010336
    5  C  1  Y    0.007901   0.001617   0.212909   0.011157   0.010200
    6  C  1  Z    0.009235   0.004056   0.263133  -0.000999  -0.039013
    7  C  1  X    0.154955  -0.125090  -0.204813  -0.050950  -0.749165
    8  C  1  Y    0.180453  -0.161817  -0.152429   0.076639  -0.742041
    9  C  1  Z    0.081764  -0.022932   0.022334   0.112187  -0.208382
   10  C  1 XX   -0.000100  -0.007029   0.001489   0.007002   0.017816
   11  C  1 YY    0.004566   0.009812   0.002693  -0.010041   0.000569
   12  C  1 ZZ   -0.004467  -0.002783  -0.004182   0.003040  -0.018385
   13  C  1 XY    0.015988   0.012331   0.015041  -0.006345  -0.005744
   14  C  1 XZ    0.005056  -0.006278   0.016578  -0.012864  -0.000774
   15  C  1 YZ    0.016886  -0.007310  -0.011515  -0.000148  -0.014362
   16  C  1  S   -0.538708   0.172141   0.602591  -0.065519   1.666945
   17  C  1  X   -0.183813   0.068599   0.311574  -0.009386   1.035279
   18  C  1  Y   -0.333228   0.139955   0.434017  -0.046128   1.657555
   19  C  1  Z   -0.089294   0.038812   0.097409  -0.031383   0.427774
   20  C  1 XX   -0.066784   0.059554   0.078857  -0.019742   0.321573
   21  C  1 YY    0.055736  -0.045056  -0.109609  -0.009263  -0.315633
   22  C  1 ZZ    0.011049  -0.014498   0.030752   0.029005  -0.005940
   23  C  1 XY    0.018793   0.022908  -0.135533  -0.044959  -0.132151
   24  C  1 XZ    0.101846  -0.061985  -0.161873  -0.028704  -0.538777
   25  C  1 YZ    0.033376  -0.065129   0.017382   0.043122  -0.139177
   26  C  2  S   -0.007844  -0.000223   0.002512   0.001646  -0.002110
   27  C  2  S    0.130961   0.014329   0.024368  -0.007677  -0.018012
   28  C  2  S   -0.261312   0.151123   0.328660  -0.044850   0.979866
   29  C  2  X    0.140464  -0.015622  -0.017841   0.011055  -0.017720
   30  C  2  Y   -0.127755  -0.018523  -0.027627   0.004703   0.007486
   31  C  2  Z    0.226961  -0.011096  -0.011517   0.001127  -0.038264
   32  C  2  X    0.034333  -0.040696   0.035187   0.057529   0.061384
   33  C  2  Y    0.150438  -0.111670  -0.134140   0.025181  -0.253373
   34  C  2  Z    0.068792   0.000415  -0.111768  -0.038601  -0.260658
   35  C  2 XX   -0.017866  -0.000355   0.006696  -0.001239   0.015661
   36  C  2 YY    0.004190  -0.000065  -0.003443   0.000658  -0.000943
   37  C  2 ZZ    0.013676   0.000420  -0.003252   0.000581  -0.014719
   38  C  2 XY   -0.018382   0.000455   0.008813  -0.002876  -0.007410
   39  C  2 XZ    0.027823  -0.000989  -0.002594  -0.000223   0.008876
   40  C  2 YZ   -0.037931  -0.000242  -0.012579   0.002314   0.016329
   41  C  2  S    0.679799  -0.286092  -0.803117   0.058475  -2.731006
   42  C  2  X   -0.018692   0.005662  -0.010693  -0.005049   0.000801
   43  C  2  Y   -0.131992   0.054984   0.151525  -0.001966   0.471354
   44  C  2  Z   -0.010122  -0.000553   0.025617   0.001317   0.061742
   45  C  2 XX    0.024511   0.004830  -0.006003  -0.010544   0.018723
   46  C  2 YY   -0.020588   0.005925   0.003924   0.001381  -0.054459
   47  C  2 ZZ   -0.003923  -0.010756   0.002079   0.009163   0.035736
   48  C  2 XY   -0.009287   0.026480  -0.004309  -0.028140   0.072237
   49  C  2 XZ   -0.007701   0.005050  -0.020622   0.006700  -0.151614
   50  C  2 YZ    0.035800  -0.014276   0.034257   0.019001   0.044621
   51  O  3  S   -0.006615  -0.001932  -0.001495   0.000892  -0.017536
   52  O  3  S    0.178382  -0.008247   0.008882  -0.004314   0.196571
   53  O  3  S    0.150423   0.028945   0.089155  -0.019063   0.568999
   54  O  3  X   -0.041519   0.000916  -0.014944   0.009139   0.470642
   55  O  3  Y    0.432756   0.009307  -0.022325   0.002148  -0.115828
   56  O  3  Z   -0.175158   0.009059  -0.028997   0.000938  -0.123529
   57  O  3  X   -0.007099  -0.007486  -0.018704   0.028562   0.255016
   58  O  3  Y    0.334149   0.003896  -0.018317   0.006164  -0.081122
   59  O  3  Z   -0.101469  -0.002228  -0.049195  -0.002921  -0.247278
   60  O  3 XX   -0.008588  -0.000022   0.005745   0.000092  -0.000993
   61  O  3 YY    0.005292   0.000170  -0.002249  -0.000513  -0.001129
   62  O  3 ZZ    0.003297  -0.000149  -0.003496   0.000421   0.002122
   63  O  3 XY   -0.008139   0.000218  -0.001106   0.000546   0.002308
   64  O  3 XZ    0.005576   0.000419   0.001622  -0.000843  -0.006065
   65  O  3 YZ   -0.018061  -0.000574  -0.004030   0.000238   0.001237
   66  O  3  S   -0.056356   0.024322   0.111911  -0.026086   0.706941
   67  O  3  X   -0.028650   0.010721   0.026244   0.007705   0.145979
   68  O  3  Y   -0.021541   0.020285   0.052393  -0.003106   0.196400
   69  O  3  Z    0.095895  -0.029918  -0.167763   0.022320  -0.751103
   70  O  3 XX   -0.005926  -0.001975  -0.004092  -0.006416  -0.049808
   71  O  3 YY    0.009389  -0.003501  -0.000268   0.003063  -0.001458
   72  O  3 ZZ   -0.003463   0.005476   0.004359   0.003353   0.051266
   73  O  3 XY   -0.018248  -0.004111  -0.000877  -0.004282   0.008849
   74  O  3 XZ    0.000939   0.001084   0.001511  -0.002188  -0.012761
   75  O  3 YZ   -0.030987   0.000562  -0.007682   0.001204   0.002490
   76  H  4  S   -0.010625   0.004659  -0.014214  -0.002587   0.018878
   77  H  4  S   -0.101023   0.076829  -0.018505  -0.004266   0.058414
   78  H  4  X    0.008114   0.000453   0.000869  -0.001424  -0.003007
   79  H  4  Y   -0.008331  -0.000148  -0.000664  -0.000050   0.001866
   80  H  4  Z    0.005245  -0.000376  -0.000662   0.000730  -0.000374
   81  H  4  S    0.035467  -0.020574  -0.061022  -0.001113  -0.174362
   82  H  4  X   -0.019722   0.019643   0.011902  -0.005140   0.080997
   83  H  4  Y   -0.003974  -0.007504   0.018017  -0.007331   0.086334
   84  H  4  Z    0.011536  -0.008240  -0.019699   0.004847  -0.113839
   85  H  5  S   -0.004215  -0.007186   0.012023   0.002158  -0.039139
   86  H  5  S    0.083396  -0.034368  -0.155158   0.011886  -1.022096
   87  H  5  X   -0.001269   0.000603   0.003214  -0.000455   0.011317
   88  H  5  Y   -0.005644  -0.001100  -0.002536   0.000450  -0.005261
   89  H  5  Z    0.009719  -0.001412  -0.000748   0.001221   0.002731
   90  H  5  S    0.051219  -0.018464  -0.050858   0.006767  -0.235607
   91  H  5  X   -0.014910   0.001596   0.003797   0.003970   0.074066
   92  H  5  Y   -0.041950   0.011517   0.075207   0.003167   0.323703
   93  H  5  Z    0.020892  -0.013799  -0.028853   0.007534  -0.163295
   94  H  6  S    0.016041  -0.008479  -0.445149   0.020709  -0.042342
   95  H  6  S    0.229901  -0.060762  -0.660296   0.125773  -1.285823
   96  H  6  X   -0.002030   0.002263   0.019355  -0.000776   0.009987
   97  H  6  Y    0.000708   0.000004  -0.017495   0.000123  -0.001110
   98  H  6  Z   -0.000288  -0.000327  -0.021666   0.000757   0.004403
   99  H  6  S   -0.055421   0.030904   0.036216  -0.021453   0.264932
  100  H  6  X    0.028854  -0.013837  -0.020742  -0.019049  -0.186131
  101  H  6  Y    0.044742  -0.025812  -0.108548   0.029781  -0.324984
  102  H  6  Z    0.037494  -0.017752  -0.110369   0.039599  -0.259180
  103  C  7  S   -0.000468  -0.009391   0.004254  -0.008646   0.008275
  104  C  7  S    0.006337   0.192832   0.028549   0.194193   0.027521
  105  C  7  S    0.142462  -0.071726  -0.064225   0.057969  -0.594724
  106  C  7  X    0.009777   0.028340   0.027077  -0.147463   0.014925
  107  C  7  Y    0.001289  -0.350692   0.011953   0.225276   0.011398
  108  C  7  Z   -0.003482   0.134081  -0.007393   0.260625   0.002225
  109  C  7  X    0.131936  -0.127619  -0.112391  -0.083756  -0.696679
  110  C  7  Y    0.085970  -0.171326  -0.114708   0.020604  -0.511175
  111  C  7  Z   -0.005940   0.071387  -0.008151   0.056421   0.034852
  112  C  7 XX    0.001378  -0.011847  -0.006542  -0.007034  -0.009294
[...]
                                      ------------------
            SOLUTE POTENTIAL ENERGY =    -383.7535297675
              SOLUTE KINETIC ENERGY =     191.4417791031
                 VIRIAL RATIO (V/T) =       2.0045443140

          ---------------------------------------
          MULLIKEN AND LOWDIN POPULATION ANALYSES
          ---------------------------------------

     ATOMIC MULLIKEN POPULATION IN EACH MOLECULAR ORBITAL

                      1          2          3          4          5

                  2.000000   2.000000   2.000000   2.000000   2.000000

    1             0.002489   1.980651   0.014520   0.005397   0.127876
    2             0.000380   0.014661   1.982827   0.000904   0.219202
    3             1.996846  -0.000457  -0.000542   0.000029   1.739142
    4             0.000085   0.000422   0.001390   0.000074  -0.022177
    5             0.000096   0.000496   0.001197   0.000025  -0.059262
    6             0.000113   0.000456   0.000241   0.000241  -0.043042
    7            -0.000019   0.003146   0.000317   1.988054   0.046168
    8             0.000021   0.000031   0.000029   0.001607  -0.007195
    9             0.000000   0.000220   0.000007   0.001839   0.009780
   10            -0.000010   0.000375   0.000014   0.001831  -0.010492

                      6          7          8          9         10

                  2.000000   2.000000   2.000000   2.000000   2.000000

    1             0.527865   0.252976   0.433396   0.540396   0.214130
    2             0.103874   0.557049   0.165326   0.239425   0.377810
    3             0.184123   0.442052   0.375358   0.547173   0.624956
    4             0.013883   0.210817   0.189726   0.048327   0.342973
    5             0.017465   0.331059   0.079678   0.244193  -0.006444
    6             0.130433   0.029614   0.309342   0.155151   0.118870
    7             0.662948   0.127300   0.246081   0.206638   0.239644
    8             0.150577   0.023936   0.080908   0.009018   0.029268
    9             0.093444   0.021507   0.048224   0.028512   0.040131
   10             0.115388   0.003690   0.071960  -0.018832   0.018661

                     11         12         13         14         15

                  2.000000   2.000000   2.000000   2.000000   2.000000

    1             0.225036   0.065840   0.185157   0.265567   1.012509
    2             0.166375   0.162348  -0.028381   0.008012  -0.147412
    3             0.545779   0.142872   0.685497   0.301096   1.155419
    4            -0.007017   0.074344   0.270506   0.013454   0.006253
    5             0.225296   0.093625   0.138866   0.118568  -0.151122
    6             0.028895   0.012070  -0.064354   0.187633   0.356988
    7             0.431646   0.759421   0.722632   0.461834  -0.480688
    8             0.115663   0.182773   0.021360   0.417147   0.016507
    9             0.224388   0.050620   0.088578   0.235745   0.131442
   10             0.043940   0.456087  -0.019862  -0.009058   0.100104

                     16

                  2.000000

    1             0.495999
    2             0.582297
    3             0.467837
    4             0.033479
    5             0.011634
    6            -0.003828
    7             0.221007
    8             0.001726
    9            -0.000038
   10             0.189886

               ----- POPULATIONS IN EACH AO -----
                             MULLIKEN      LOWDIN
              1  C  1  S      2.00801     1.80416
              2  C  1  S      0.66158     0.42897
              3  C  1  S      0.33854     0.17115
              4  C  1  X      0.65462     0.56054
              5  C  1  Y      0.71300     0.59650
              6  C  1  Z      0.57396     0.49612
              7  C  1  X      0.24210     0.22950
              8  C  1  Y      0.15450     0.25273
              9  C  1  Z      0.09731     0.22087
             10  C  1 XX      0.02333     0.13207
             11  C  1 YY      0.03096     0.12999
             12  C  1 ZZ      0.02342     0.11022
             13  C  1 XY      0.03801     0.04593
             14  C  1 XZ      0.01995     0.06644
             15  C  1 YZ      0.00000     0.04343
             16  C  1  S      0.09728     0.05149
             17  C  1  X      0.46629     0.08759
             18  C  1  Y      0.09503     0.04784
             19  C  1  Z      0.06524     0.03151
             20  C  1 XX     -0.02877     0.11827
             21  C  1 YY      0.17171     0.10495
             22  C  1 ZZ      0.03323     0.08711
             23  C  1 XY     -0.18882     0.16047
             24  C  1 XZ      0.05934     0.15299
             25  C  1 YZ      0.00000     0.12523
             26  C  2  S      2.00766     1.80468
             27  C  2  S      0.65635     0.43240
             28  C  2  S      0.35497     0.18420
             29  C  2  X      0.68782     0.58378
             30  C  2  Y      0.67278     0.56191
             31  C  2  Z      0.59463     0.52060
             32  C  2  X      0.08161     0.26832
             33  C  2  Y      0.01519     0.25590
             34  C  2  Z      0.13503     0.22652
             35  C  2 XX      0.01503     0.10696
             36  C  2 YY      0.01667     0.13980
             37  C  2 ZZ      0.02779     0.09911
             38  C  2 XY      0.01780     0.06353
             39  C  2 XZ      0.03244     0.03642
             40  C  2 YZ      0.00000     0.06065
             41  C  2  S     -0.60048     0.04837
             42  C  2  X     -0.01881     0.03455
             43  C  2  Y     -0.05582     0.05275
             44  C  2  Z     -0.00784     0.01987
             45  C  2 XX     -0.02638     0.04358
             46  C  2 YY      0.01273     0.10236
             47  C  2 ZZ     -0.09499     0.06081
             48  C  2 XY     -0.10650     0.14039
             49  C  2 XZ     -0.01296     0.06291
             50  C  2 YZ      0.00000     0.11203
             51  O  3  S      2.00385     1.86808
             52  O  3  S      0.84995     0.62128
             53  O  3  S      1.14820     0.34909
             54  O  3  X      0.85547     0.79452
             55  O  3  Y      0.88951     0.83627
             56  O  3  Z      0.94132     0.88511
             57  O  3  X      0.50316     0.48765
             58  O  3  Y      0.68095     0.50140
             59  O  3  Z      0.65094     0.51823
             60  O  3 XX      0.00293     0.16298
             61  O  3 YY      0.00224     0.16553
             62  O  3 ZZ      0.00224     0.16337
             63  O  3 XY      0.00455     0.00219
             64  O  3 XZ      0.00502     0.00477
             65  O  3 YZ      0.00000     0.00505
             66  O  3  S      0.37112     0.08790
             67  O  3  X      0.11977     0.18816
             68  O  3  Y     -0.03241     0.05948
             69  O  3  Z      0.18059     0.11261
             70  O  3 XX     -0.00193     0.05752
             71  O  3 YY     -0.00284     0.05687
             72  O  3 ZZ      0.00629     0.07859
             73  O  3 XY      0.00913     0.04034
             74  O  3 XZ      0.01713     0.04846
             75  O  3 YZ      0.00000     0.04823
             76  H  4  S      0.76746     0.52529
             77  H  4  S      0.43406     0.15646
             78  H  4  X      0.01252     0.02514
             79  H  4  Y      0.01220     0.02350
             80  H  4  Z      0.00598     0.01392
             81  H  4  S     -0.01753     0.02316
             82  H  4  X     -0.04647     0.06167
             83  H  4  Y     -0.00165     0.04965
             84  H  4  Z      0.00997     0.04668
             85  H  5  S      0.76360     0.51963
             86  H  5  S      0.46691     0.16848
             87  H  5  X      0.01377     0.02705
             88  H  5  Y      0.00678     0.01540
             89  H  5  Z      0.01098     0.02258
             90  H  5  S     -0.04440     0.02360
             91  H  5  X     -0.01229     0.06140
             92  H  5  Y     -0.12000     0.04091
             93  H  5  Z     -0.03998     0.05107
             94  H  6  S      0.77004     0.52003
             95  H  6  S      0.56086     0.15701
             96  H  6  X      0.00771     0.01667
             97  H  6  Y      0.00929     0.02015
             98  H  6  Z      0.01263     0.02529
             99  H  6  S      0.05744     0.02621
            100  H  6  X     -0.05120     0.04303
            101  H  6  Y     -0.06504     0.04812
            102  H  6  Z     -0.08291     0.05012
            103  C  7  S      2.00773     1.81790
            104  C  7  S      0.65589     0.42109
            105  C  7  S      0.06976     0.18518
            106  C  7  X      0.65772     0.56589
            107  C  7  Y      0.69793     0.59211
            108  C  7  Z      0.69153     0.58652
            109  C  7  X      0.29797     0.27260
            110  C  7  Y      0.18783     0.30942
            111  C  7  Z      0.21213     0.31669
            112  C  7 XX      0.00813     0.11626
            113  C  7 YY      0.01794     0.11521
            114  C  7 ZZ      0.00979     0.10593
            115  C  7 XY      0.01526     0.01927
            116  C  7 XZ      0.01067     0.03362
            117  C  7 YZ      0.00000     0.02345
            118  C  7  S      0.05898     0.05098
            119  C  7  X      0.10198     0.03218
            120  C  7  Y     -0.01019     0.03026
            121  C  7  Z     -0.00279     0.02587
            122  C  7 XX     -0.02491     0.06787
            123  C  7 YY      0.00446     0.05673
            124  C  7 ZZ     -0.01065     0.03510
            125  C  7 XY     -0.00657     0.05688
            126  C  7 XZ     -0.01445     0.09405
            127  C  7 YZ      0.00000     0.04081
            128  H  8  S      0.76427     0.52413
            129  H  8  S      0.27637     0.15131
            130  H  8  X      0.00771     0.01553
            131  H  8  Y      0.01011     0.01996
            132  H  8  Z      0.01298     0.02452
            133  H  8  S      0.00555     0.02123
            134  H  8  X     -0.01741     0.05074
            135  H  8  Y     -0.00237     0.06710
            136  H  8  Z     -0.01382     0.07080
            137  H  9  S      0.75498     0.52671
            138  H  9  S      0.25823     0.15430
            139  H  9  X      0.01063     0.02067
            140  H  9  Y      0.00508     0.01311
            141  H  9  Z      0.01480     0.02691
            142  H  9  S     -0.00279     0.02040
            143  H  9  X     -0.03030     0.05246
            144  H  9  Y     -0.02594     0.05726
            145  H  9  Z     -0.01029     0.07478
            146  H 10  S      0.75721     0.53031
            147  H 10  S      0.19557     0.15293
            148  H 10  X      0.00430     0.01184
            149  H 10  Y      0.01921     0.03366
            150  H 10  Z      0.00715     0.01609
            151  H 10  S      0.00385     0.01984
            152  H 10  X     -0.01553     0.04853
            153  H 10  Y     -0.00678     0.07858
            154  H 10  Z     -0.02128     0.06006

          ----- MULLIKEN ATOMIC OVERLAP POPULATIONS -----
          (OFF-DIAGONAL ELEMENTS NEED TO BE MULTIPLIED BY 2)

             1           2           3           4           5

    1   27.2536833
    2  -14.2512126  17.2785974
    3    5.9580216  -4.2393621  13.3731865
    4   -0.5131989   0.6432872  -0.0348847   1.3146197
    5   -6.9330567   5.2867120  -3.7893265  -0.2771502   6.2249096
    6   -5.7411763   3.4186852  -3.2648065   0.1518174   2.0032632
    7    2.4254542  -5.2261365   1.3387140  -0.2251440  -1.4427024
    8    0.0480872  -0.5205287   0.1467635  -0.0045101  -0.2487541
    9   -0.5997360   0.5354584  -0.0510844   0.0305247   0.0080539
   10   -1.2970599   1.4791976  -0.2300412   0.0911759   0.2134210

             6           7           8           9          10

    6    6.0763364
    7   -1.8263881  12.2299393
    8   -0.0940391   0.6446707   1.1471724
    9    0.0769454  -0.5453973  -0.0155229   1.2812711
   10    0.4181838  -1.7368821  -0.0599611   0.2538866   1.8117614

          TOTAL MULLIKEN AND LOWDIN ATOMIC POPULATIONS
       ATOM         MULL.POP.    CHARGE          LOW.POP.     CHARGE
    1 C             6.349806   -0.349806         6.256071   -0.256071
    2 C             4.404698    1.595302         6.022416   -0.022416
    3 O             9.207180   -1.207180         8.143663   -0.143663
    4 H             1.176537   -0.176537         0.925473    0.074527
    5 H             1.045370   -0.045370         0.930124    0.069876
    6 H             1.218822   -0.218822         0.906623    0.093377
    7 C             5.636128    0.363872         5.971872    0.028128
    8 H             1.043378   -0.043378         0.945324    0.054676
    9 H             0.974399    0.025601         0.946596    0.053404
   10 H             0.943682    0.056318         0.951838    0.048162

          MULLIKEN SPHERICAL HARMONIC POPULATIONS
       ATOM           S       P       D      F      G      H      I    TOTAL
    1 C             3.11    3.06    0.18   0.00   0.00   0.00   0.00    6.35
    2 C             2.42    2.10   -0.12   0.00   0.00   0.00   0.00    4.40
    3 O             4.37    4.79    0.04   0.00   0.00   0.00   0.00    9.21
    4 H             1.18   -0.01    0.00   0.00   0.00   0.00   0.00    1.18
    5 H             1.19   -0.14    0.00   0.00   0.00   0.00   0.00    1.05
    6 H             1.39   -0.17    0.00   0.00   0.00   0.00   0.00    1.22
    7 C             2.79    2.83    0.01   0.00   0.00   0.00   0.00    5.64
    8 H             1.05   -0.00    0.00   0.00   0.00   0.00   0.00    1.04
    9 H             1.01   -0.04    0.00   0.00   0.00   0.00   0.00    0.97
   10 H             0.96   -0.01    0.00   0.00   0.00   0.00   0.00    0.94

          -------------------------------
          BOND ORDER AND VALENCE ANALYSIS     BOND ORDER THRESHOLD=0.050
          -------------------------------

                   BOND                       BOND                       BOND
  ATOM PAIR DIST  ORDER      ATOM PAIR DIST  ORDER      ATOM PAIR DIST  ORDER
    1   2  1.471  0.618        1   3  1.449  1.926        1   4  2.220  0.167
    1   5  2.225 -0.259        1   6  1.091  0.745        1   7  1.507  1.480
    1   8  2.156  0.063        1   9  2.149  0.078        1  10  2.153  0.057
    2   3  1.445 -0.537        2   4  1.089  0.664        2   5  1.089  1.177
    2   6  2.192  0.159        3   4  2.136  0.056        3   5  2.141 -0.682
    3   6  2.120 -0.553        3   7  2.510  0.294        4   5  1.847 -0.208
    4   7  2.840  0.056        5   6  2.509  0.074        6   7  2.214 -0.258
    7   8  1.095  0.888        7   9  1.097  0.795        7  10  1.096  0.952
    8   9  1.781 -0.051

                       TOTAL       BONDED        FREE
      ATOM            VALENCE     VALENCE     VALENCE
    1 C                 4.874       4.874       0.000
    2 C                 2.063       2.063       0.000
    3 O                 0.561       0.561      -0.000
    4 H                 0.766       0.766      -0.000
    5 H                 0.042       0.042      -0.000
    6 H                 0.181       0.181      -0.000
    7 C                 4.176       4.176      -0.000
    8 H                 0.895       0.895      -0.000
    9 H                 0.753       0.753      -0.000
   10 H                 0.910       0.910      -0.000

          ----------------------------
          SOLUTE ELECTROSTATIC MOMENTS
          ----------------------------

 POINT   1           X           Y           Z (BOHR)    CHARGE
                -1.485550    0.262750    0.094121       -0.00 (A.U.)
         DX          DY          DZ         /D/  (DEBYE)
    -5.350295    1.412640   -2.297698    5.991713

          ----------------------------------------
          EFFECTIVE FRAGMENT ELECTROSTATIC MOMENTS
          ----------------------------------------

 FRAGMENT   1  FRAGNA
          X           Y           Z (BOHR)    CHARGE
     5.101450   -0.794264   -0.232716        0.00 (A.U.)
         DX          DY          DZ         /D/  (DEBYE)
    -0.238931   -0.014459    1.969167    1.983662


          ----------------------------
          SYSTEM ELECTROSTATIC MOMENTS
          ----------------------------

 POINT   1           X           Y           Z (BOHR)    CHARGE
                -1.485550    0.262750    0.094121       -0.00 (A.U.)
         DX          DY          DZ         /D/  (DEBYE)
    -6.199296    1.525735   -0.020901    6.384323
 ...... END OF PROPERTY EVALUATION ......
 STEP CPU TIME =     0.03 TOTAL CPU TIME =       38.2 (    0.6 MIN)
 TOTAL WALL CLOCK TIME=       41.0 SECONDS, CPU UTILIZATION IS  93.10%

 --------------------------   -----------------------------
 RHF-MP2 ENERGY CALCULATION   PROGRAM WRITTEN BY K.ISHIMURA
 --------------------------   -----------------------------
 NUMBER OF OCCUPIED ORBITALS            =   16
 NUMBER OF CORRELATED OCCUPIED ORBITALS =   16
 NUMBER OF VIRTUAL ORBITALS             =  130
 NUMBER OF BASIS FUNCTIONS              =  154
 NUMBER OF BASIS SHELLS                 =   66
 AO-TRANSFORMED INTEGRAL THRESHOLD      = 1.00E-09
 HALF-TRANSFORMED INTEGRAL THRESHOLD    = 5.64E-13
 TOTAL DISK REQUIRED (ALL PROCESSORS)=             21 MBYTES
                  DISK SPACE PER CORE=             21 MBYTES, USING P=    1
 MEMORY REQUIRED FOR TRANSFORMATION OF 1ST THREE INDICES=      305116
 MEMORY REQUIRED FOR    4TH INDEX TRANSF. AND MP2 ENERGY=     2826744
 BEGINNING MP2 INTEGRAL TRANSFORMATION...
 BEGINNING    1ST SHELL LOOP...
 BEGINNING   26TH SHELL LOOP...
 BEGINNING   51ST SHELL LOOP...

 RESULTS OF MOLLER-PLESSET 2ND ORDER CORRECTION ARE
               E(0)=      -191.7526071031
               E(1)=         0.0
               E(2)=        -0.6782863234
             E(MP2)=      -192.4308934265
 SPIN-COMPONENT-SCALED MP2 RESULTS ARE
              E(2S)=        -0.5100096143
              E(2T)=        -0.1682767091
             E(2ST)=        -0.6681037735 = 6/5 * E(2S) + 1/3 * E(2T)
            SCS-MP2=      -192.4207108766
 ..... DONE WITH MP2 ENERGY .....
 STEP CPU TIME =    23.08 TOTAL CPU TIME =       61.3 (    1.0 MIN)
 TOTAL WALL CLOCK TIME=       64.2 SECONDS, CPU UTILIZATION IS  95.41%
               2826817  WORDS OF DYNAMIC MEMORY USED
 EXECUTION OF GAMESS TERMINATED NORMALLY Tue Aug  8 10:37:12 2017
 DDI: 263640 bytes (0.3 MB / 0 MWords) used by master data server.

 ----------------------------------------
 CPU timing information for all processes
 ========================================
 0: 52.90 + 9.200 = 61.290
 ----------------------------------------
 ddikick.x: exited gracefully.
unset echo
----- accounting info -----
Files used on the master node nrlogin1 were:
-rw-rw-r-- 1 jchoward jchoward    406729 Aug  8 10:36 /home/jchoward/dragon/chem/gamess_test/mp2_w_efp/change_dens_conv/g_cc.dat
-rw-r--r-- 1 jchoward jchoward     50077 Aug  8 10:36 /home/jchoward/dragon/chem/gamess_test/mp2_w_efp/change_dens_conv/g_cc.F05
-rw-rw-r-- 1 jchoward jchoward 843014928 Aug  8 10:36 /home/jchoward/dragon/chem/gamess_test/mp2_w_efp/change_dens_conv/g_cc.F08
-rw-rw-r-- 1 jchoward jchoward   3566480 Aug  8 10:37 /home/jchoward/dragon/chem/gamess_test/mp2_w_efp/change_dens_conv/g_cc.F10
-rw-rw-r-- 1 jchoward jchoward   1145856 Aug  8 10:36 /home/jchoward/dragon/chem/gamess_test/mp2_w_efp/change_dens_conv/g_cc.F25
-rw-rw-r-- 1 jchoward jchoward 757327312 Aug  8 10:36 /home/jchoward/dragon/chem/gamess_test/mp2_w_efp/change_dens_conv/g_cc.F39
-rw-rw-r-- 1 jchoward jchoward    376144 Aug  8 10:36 /home/jchoward/dragon/chem/gamess_test/mp2_w_efp/change_dens_conv/g_cc.h5
-rw-r--r-- 1 jchoward jchoward     50077 Aug  8 10:36 /home/jchoward/dragon/chem/gamess_test/mp2_w_efp/change_dens_conv/g_cc.inp
ls: No match.
ls: No match.
ls: No match.
Tue Aug  8 10:37:16 EDT 2017
0.104u 0.155s 1:07.57 0.3%	0+0k 0+272io 0pf+0w
