
    -----------------------------------------------------------------------
          Psi4: An Open-Source Ab Initio Electronic Structure Package
                               Psi4 1.1rc1 

                         Git: Rev {HEAD} 6db9b1f 


    R. M. Parrish, L. A. Burns, D. G. A. Smith, A. C. Simmonett,
    A. E. DePrince III, E. G. Hohenstein, U. Bozkaya, A. Yu. Sokolov,
    R. Di Remigio, R. M. Richard, J. F. Gonthier, A. M. James,
    H. R. McAlexander, A. Kumar, M. Saitow, X. Wang, B. P. Pritchard,
    P. Verma, H. F. Schaefer III, K. Patkowski, R. A. King, E. F. Valeev,
    F. A. Evangelista, J. M. Turney, T. D. Crawford, and C. D. Sherrill,
    submitted.

    -----------------------------------------------------------------------


    Psi4 started on: Saturday, 02 March 2019 06:48PM

    Process ID:  25986
    PSIDATADIR: /home/jchoward/psi4conda/share/psi4
    Memory:     500.0 MiB
    Threads:    1
    
  ==> Input File <==

--------------------------------------------------------------------------
sys.path.insert(0, './../')
import efp_gamess

memory 900 mb

molecule {
  C      -0.760348   -0.184626   -0.375944
  C      -0.359139    1.221670   -0.221730
  O      0.105433    0.221711    0.712263
  H      -1.062208    1.936726    0.204119
  H       0.417567    1.639988   -0.860411
  H      -0.232306   -0.767959   -1.131840
  C      -2.126083   -0.688966    0.012252
  H      -2.575921   -0.049412    0.778944
  H      -2.787098   -0.705369   -0.863386
  H      -2.062442   -1.709639    0.407385

symmetry c1
}

set {
  #basis aug-cc-pvdz
  basis 6-31g
  puream true
  gauge velocity
  omega [355,436,589,633, nm]
  scf_type pk
  mp2_type conv
}

set efp_gamess {
  print 1
}

set ccresponse {
  maxiter 150
  r_convergence 5
}

egy,wfn=energy('efp_gamess',return_wfn=True)
print(egy)
efp_gamess.exampleFN()
#properties('ccsd',properties=['rotation'],ref_wfn=wfn)
#energy('ccsd',ref_wfn=wfn)
--------------------------------------------------------------------------
/home/jchoward/psiadditions/efpGamessPsi4/efp_gamess/efp_gamess.so loaded.

  Memory set to 858.307 MiB by Python driver.

*** tstart() called on a213948
*** at Sat Mar  2 18:48:32 2019

   => Loading Basis Set <=

    Name: 6-31G
    Role: ORBITAL
    Keyword: BASIS
    atoms 1-2, 7    entry C          line    82 file /home/jchoward/psi4conda/share/psi4/basis/6-31g.gbs 
    atoms 3         entry O          line   112 file /home/jchoward/psi4conda/share/psi4/basis/6-31g.gbs 
    atoms 4-6, 8-10 entry H          line    21 file /home/jchoward/psi4conda/share/psi4/basis/6-31g.gbs 

    There are an even number of electrons - assuming singlet.
    Specify the multiplicity in the molecule input block.


         ---------------------------------------------------------
                                   SCF
            by Justin Turney, Rob Parrish, and Andy Simmonett
                              RHF Reference
                        1 Threads,    858 MiB Core
         ---------------------------------------------------------

  ==> Geometry <==

    Molecular point group: c1
    Full point group: C1

    Geometry (in Angstrom), charge = 0, multiplicity = 1:

       Center              X                  Y                   Z               Mass       
    ------------   -----------------  -----------------  -----------------  -----------------
           C          0.025771173179    -0.323667258819    -0.425750596155    12.000000000000
           C          0.426980173179     1.082628741181    -0.271536596155    12.000000000000
           O          0.891552173179     0.082669741181     0.662456403845    15.994914619560
           H         -0.276088826821     1.797684741181     0.154312403845     1.007825032070
           H          1.203686173179     1.500946741181    -0.910217596155     1.007825032070
           H          0.553813173179    -0.907000258819    -1.181646596155     1.007825032070
           C         -1.339963826821    -0.828007258819    -0.037554596155    12.000000000000
           H         -1.789801826821    -0.188453258819     0.729137403845     1.007825032070
           H         -2.000978826821    -0.844410258819    -0.913192596155     1.007825032070
           H         -1.276322826821    -1.848680258819     0.357578403845     1.007825032070

  Running in c1 symmetry.

  Rotational constants: A =      0.59962  B =      0.22030  C =      0.19615 [cm^-1]
  Rotational constants: A =  17976.13228  B =   6604.48451  C =   5880.42420 [MHz]
  Nuclear repulsion =  124.060448035947019

  Charge       = 0
  Multiplicity = 1
  Electrons    = 32
  Nalpha       = 16
  Nbeta        = 16

  ==> Algorithm <==

  SCF Algorithm Type is PK.
  DIIS enabled.
  MOM disabled.
  Fractional occupation disabled.
  Guess Type is SAD.
  Energy threshold   = 1.00e-08
  Density threshold  = 1.00e-08
  Integral threshold = 0.00e+00

  ==> Primary Basis <==

  Basis Set: 6-31G
    Blend: 6-31G
    Number of shells: 32
    Number of basis function: 48
    Number of Cartesian functions: 48
    Spherical Harmonics?: true
    Max angular momentum: 1

  ==> Pre-Iterations <==

   -------------------------------------------------------
    Irrep   Nso     Nmo     Nalpha   Nbeta   Ndocc  Nsocc
   -------------------------------------------------------
     A         48      48       0       0       0       0
   -------------------------------------------------------
    Total      48      48      16      16      16       0
   -------------------------------------------------------

  ==> Integral Setup <==

  Using in-core PK algorithm.
   Calculation information:
      Number of atoms:                  10
      Number of AO shells:              32
      Number of primitives:             80
      Number of atomic orbitals:        48
      Number of basis functions:        48

      Integral cutoff                 1.00e-12
      Number of threads:                 1

  Performing in-core PK
  Using 1384152 doubles for integral storage.
  We computed 137282 shell quartets total.
  Whereas there are 139656 unique shell quartets.
  ==> DiskJK: Disk-Based J/K Matrices <==

    J tasked:                  Yes
    K tasked:                  Yes
    wK tasked:                  No
    Memory (MB):               643
    Schwarz Cutoff:          1E-12

    OpenMP threads:              1
  Minimum eigenvalue in the overlap matrix is 5.4557921783E-03.
  Using Symmetric Orthogonalization.

  SCF Guess: Superposition of Atomic Densities via on-the-fly atomic UHF.

  ==> Iterations <==

                        Total Energy        Delta E     RMS |[F,P]|

   @RHF iter   0:  -193.55910029085561   -1.93559e+02   7.83014e-02 
   @RHF iter   1:  -191.68388202259203    1.87522e+00   8.14240e-03 
   @RHF iter   2:  -191.78297758744205   -9.90956e-02   4.60510e-03 DIIS
   @RHF iter   3:  -191.80588647346738   -2.29089e-02   1.39330e-03 DIIS
   @RHF iter   4:  -191.80999993196696   -4.11346e-03   4.30678e-04 DIIS
   @RHF iter   5:  -191.81043113205874   -4.31200e-04   1.30892e-04 DIIS
   @RHF iter   6:  -191.81048968104204   -5.85490e-05   3.52987e-05 DIIS
   @RHF iter   7:  -191.81049420174966   -4.52071e-06   1.21426e-05 DIIS
   @RHF iter   8:  -191.81049469534059   -4.93591e-07   3.33647e-06 DIIS
   @RHF iter   9:  -191.81049473328787   -3.79473e-08   6.82238e-07 DIIS
   @RHF iter  10:  -191.81049473499246   -1.70459e-09   2.00535e-07 DIIS
   @RHF iter  11:  -191.81049473510419   -1.11726e-10   6.53019e-08 DIIS
   @RHF iter  12:  -191.81049473511882   -1.46372e-11   1.42205e-08 DIIS
   @RHF iter  13:  -191.81049473512024   -1.42109e-12   3.73585e-09 DIIS

  ==> Post-Iterations <==

    Orbital Energies (a.u.)
    -----------------------

    Doubly Occupied:                                                      

       1A    -20.571109     2A    -11.298960     3A    -11.289314  
       4A    -11.233435     5A     -1.416957     6A     -1.018550  
       7A     -0.913410     8A     -0.819995     9A     -0.699822  
      10A     -0.638564    11A     -0.586335    12A     -0.561199  
      13A     -0.527355    14A     -0.508172    15A     -0.444652  
      16A     -0.431418  

    Virtual:                                                              

      17A      0.240527    18A      0.267584    19A      0.269672  
      20A      0.278350    21A      0.293002    22A      0.320015  
      23A      0.326985    24A      0.328547    25A      0.415738  
      26A      0.487699    27A      0.700215    28A      0.751803  
      29A      0.787899    30A      0.810346    31A      0.831245  
      32A      0.880347    33A      0.926864    34A      0.972957  
      35A      1.044067    36A      1.092121    37A      1.165492  
      38A      1.195436    39A      1.203428    40A      1.226136  
      41A      1.241444    42A      1.288636    43A      1.340590  
      44A      1.348720    45A      1.394769    46A      1.602803  
      47A      1.764305    48A      2.055916  

    Final Occupation by Irrep:
              A 
    DOCC [    16 ]

  Energy converged.

  @RHF Final Energy:  -191.81049473512024

   => Energetics <=

    Nuclear Repulsion Energy =            124.0604480359470188
    One-Electron Energy =                -505.8233949495574961
    Two-Electron Energy =                 189.9524521784902049
    DFT Exchange-Correlation Energy =       0.0000000000000000
    Empirical Dispersion Energy =           0.0000000000000000
    PCM Polarization Energy =               0.0000000000000000
    EFP Energy =                            0.0000000000000000
    Total Energy =                       -191.8104947351202441



Properties will be evaluated at   0.000000,   0.000000,   0.000000 Bohr

Properties computed using the SCF density matrix

  Nuclear Dipole Moment: (a.u.)
     X:    -3.3572      Y:    -0.4589      Z:    -1.6505

  Electronic Dipole Moment: (a.u.)
     X:     2.6764      Y:     0.6559      Z:     0.7554

  Dipole Moment: (a.u.)
     X:    -0.6808      Y:     0.1970      Z:    -0.8952     Total:     1.1418

  Dipole Moment: (Debye)
     X:    -1.7305      Y:     0.5008      Z:    -2.2753     Total:     2.9021


*** tstop() called on a213948 at Sat Mar  2 18:48:33 2019
Module time:
	user time   =       1.02 seconds =       0.02 minutes
	system time =       0.02 seconds =       0.00 minutes
	total time  =          1 seconds =       0.02 minutes
Total time:
	user time   =       1.02 seconds =       0.02 minutes
	system time =       0.02 seconds =       0.00 minutes
	total time  =          1 seconds =       0.02 minutes
 MINTS: Wrapper to libmints.
   by Justin Turney

   Calculation information:
      Number of threads:                 1
      Number of atoms:                  10
      Number of AO shells:              32
      Number of SO shells:              32
      Number of primitives:             80
      Number of atomic orbitals:        48
      Number of basis functions:        48

      Number of irreps:                  1
      Integral cutoff                 0.00e+00
      Number of functions per irrep: [  48 ]

 OEINTS: Overlap, kinetic, potential, dipole, and quadrupole integrals
         stored in file 35.

      Computing two-electron integrals...done
      Computed 689981 non-zero two-electron integrals.
        Stored in file 33.


Reading options from the EFP_GAMESS block
Calling plugin efp_gamess.so.


  ## Difference in trans. mats (Symmetry 0) ##
  Irrep: 1 Size: 48 x 48

                 1                   2                   3                   4                   5

    1     0.00000000000000     0.00000000000000     0.00000000000000     0.00000000000000     0.00000000000000
    2     0.00000000000000     0.00000000000000     0.00000000000000     0.00000000000000     0.00000000000000
    3     0.00000000000000     0.00000000000000     0.00000000000000     0.00000000000000     0.00000000000000
    4     0.00000000000000     0.00000000000000     0.00000000000000     0.00000000000000     0.00000000000000
    5     0.00000000000000     0.00000000000000     0.00000000000000     0.00000000000000     0.00000000000000
    6     0.00000000000000     0.00000000000000     0.00000000000000     0.00000000000000     0.00000000000000
    7     0.00000000000000     0.00000000000000     0.00000000000000     0.00000000000000     0.00000000000000
    8     0.00000000000000     0.00000000000000     0.00000000000000     0.00000000000000     0.00000000000000
    9     0.00000000000000     0.00000000000000     0.00000000000000     0.00000000000000     0.00000000000000
   10     0.00000000000000     0.00000000000000     0.00000000000000     0.00000000000000     0.00000000000000
   11     0.00000000000000     0.00000000000000     0.00000000000000     0.00000000000000     0.00000000000000
   12     0.00000000000000     0.00000000000000     0.00000000000000     0.00000000000000     0.00000000000000
   13     0.00000000000000     0.00000000000000     0.00000000000000     0.00000000000000     0.00000000000000
   14     0.00000000000000     0.00000000000000     0.00000000000000     0.00000000000000     0.00000000000000
   15     0.00000000000000     0.00000000000000     0.00000000000000     0.00000000000000     0.00000000000000
   16     0.00000000000000     0.00000000000000     0.00000000000000     0.00000000000000     0.00000000000000
   17     0.00000000000000     0.00000000000000     0.00000000000000     0.00000000000000     0.00000000000000
   18     0.00000000000000     0.00000000000000     0.00000000000000     0.00000000000000     0.00000000000000
   19     0.00000000000000     0.00000000000000     0.00000000000000     0.00000000000000     0.00000000000000
   20     0.00000000000000     0.00000000000000     0.00000000000000     0.00000000000000     0.00000000000000
   21     0.00000000000000     0.00000000000000     0.00000000000000     0.00000000000000     0.00000000000000
   22     0.00000000000000     0.00000000000000     0.00000000000000     0.00000000000000     0.00000000000000
   23     0.00000000000000     0.00000000000000     0.00000000000000     0.00000000000000     0.00000000000000
   24     0.00000000000000     0.00000000000000     0.00000000000000     0.00000000000000     0.00000000000000
   25     0.00000000000000     0.00000000000000     0.00000000000000     0.00000000000000     0.00000000000000
   26     0.00000000000000     0.00000000000000     0.00000000000000     0.00000000000000     0.00000000000000
   27     0.00000000000000     0.00000000000000     0.00000000000000     0.00000000000000     0.00000000000000
   28     0.00000000000000     0.00000000000000     0.00000000000000     0.00000000000000     0.00000000000000
   29     0.00000000000000     0.00000000000000     0.00000000000000     0.00000000000000     0.00000000000000
   30     0.00000000000000     0.00000000000000     0.00000000000000     0.00000000000000     0.00000000000000
   31     0.00000000000000     0.00000000000000     0.00000000000000     0.00000000000000     0.00000000000000
   32     0.00000000000000     0.00000000000000     0.00000000000000     0.00000000000000     0.00000000000000
   33     0.00000000000000     0.00000000000000     0.00000000000000     0.00000000000000     0.00000000000000
   34     0.00000000000000     0.00000000000000     0.00000000000000     0.00000000000000     0.00000000000000
   35     0.00000000000000     0.00000000000000     0.00000000000000     0.00000000000000     0.00000000000000
   36     0.00000000000000     0.00000000000000     0.00000000000000     0.00000000000000     0.00000000000000
   37     0.00000000000000     0.00000000000000     0.00000000000000     0.00000000000000     0.00000000000000
   38     0.00000000000000     0.00000000000000     0.00000000000000     0.00000000000000     0.00000000000000
   39     0.00000000000000     0.00000000000000     0.00000000000000     0.00000000000000     0.00000000000000
   40     0.00000000000000     0.00000000000000     0.00000000000000     0.00000000000000     0.00000000000000
   41     0.00000000000000     0.00000000000000     0.00000000000000     0.00000000000000     0.00000000000000
   42     0.00000000000000     0.00000000000000     0.00000000000000     0.00000000000000     0.00000000000000
   43     0.00000000000000     0.00000000000000     0.00000000000000     0.00000000000000     0.00000000000000
   44     0.00000000000000     0.00000000000000     0.00000000000000     0.00000000000000     0.00000000000000
   45     0.00000000000000     0.00000000000000     0.00000000000000     0.00000000000000     0.00000000000000
   46     0.00000000000000     0.00000000000000     0.00000000000000     0.00000000000000     0.00000000000000
   47     0.00000000000000     0.00000000000000     0.00000000000000     0.00000000000000     0.00000000000000
   48     0.00000000000000     0.00000000000000     0.00000000000000     0.00000000000000     0.00000000000000

                 6                   7                   8                   9                  10

    1     0.00000000000000     0.00000000000000     0.00000000000000     0.00000000000000     0.00000000000000
    2     0.00000000000000     0.00000000000000     0.00000000000000     0.00000000000000     0.00000000000000
    3     0.00000000000000     0.00000000000000     0.00000000000000     0.00000000000000     0.00000000000000
    4     0.00000000000000     0.00000000000000     0.00000000000000     0.00000000000000     0.00000000000000
    5     0.00000000000000     0.00000000000000     0.00000000000000     0.00000000000000     0.00000000000000
    6     0.00000000000000     0.00000000000000     0.00000000000000     0.00000000000000     0.00000000000000
    7     0.00000000000000     0.00000000000000     0.00000000000000     0.00000000000000     0.00000000000000
    8     0.00000000000000     0.00000000000000     0.00000000000000     0.00000000000000     0.00000000000000
    9     0.00000000000000     0.00000000000000     0.00000000000000     0.00000000000000     0.00000000000000
   10     0.00000000000000     0.00000000000000     0.00000000000000     0.00000000000000     0.00000000000000
   11     0.00000000000000     0.00000000000000     0.00000000000000     0.00000000000000     0.00000000000000
   12     0.00000000000000     0.00000000000000     0.00000000000000     0.00000000000000     0.00000000000000
   13     0.00000000000000     0.00000000000000     0.00000000000000     0.00000000000000     0.00000000000000
   14     0.00000000000000     0.00000000000000     0.00000000000000     0.00000000000000     0.00000000000000
   15     0.00000000000000     0.00000000000000     0.00000000000000     0.00000000000000     0.00000000000000
   16     0.00000000000000     0.00000000000000     0.00000000000000     0.00000000000000     0.00000000000000
   17     0.00000000000000     0.00000000000000     0.00000000000000     0.00000000000000     0.00000000000000
   18     0.00000000000000     0.00000000000000     0.00000000000000     0.00000000000000     0.00000000000000
   19     0.00000000000000     0.00000000000000     0.00000000000000     0.00000000000000     0.00000000000000
   20     0.00000000000000     0.00000000000000     0.00000000000000     0.00000000000000     0.00000000000000
   21     0.00000000000000     0.00000000000000     0.00000000000000     0.00000000000000     0.00000000000000
   22     0.00000000000000     0.00000000000000     0.00000000000000     0.00000000000000     0.00000000000000
   23     0.00000000000000     0.00000000000000     0.00000000000000     0.00000000000000     0.00000000000000
   24     0.00000000000000     0.00000000000000     0.00000000000000     0.00000000000000     0.00000000000000
   25     0.00000000000000     0.00000000000000     0.00000000000000     0.00000000000000     0.00000000000000
   26     0.00000000000000     0.00000000000000     0.00000000000000     0.00000000000000     0.00000000000000
   27     0.00000000000000     0.00000000000000     0.00000000000000     0.00000000000000     0.00000000000000
   28     0.00000000000000     0.00000000000000     0.00000000000000     0.00000000000000     0.00000000000000
   29     0.00000000000000     0.00000000000000     0.00000000000000     0.00000000000000     0.00000000000000
   30     0.00000000000000     0.00000000000000     0.00000000000000     0.00000000000000     0.00000000000000
   31     0.00000000000000     0.00000000000000     0.00000000000000     0.00000000000000     0.00000000000000
   32     0.00000000000000     0.00000000000000     0.00000000000000     0.00000000000000     0.00000000000000
   33     0.00000000000000     0.00000000000000     0.00000000000000     0.00000000000000     0.00000000000000
   34     0.00000000000000     0.00000000000000     0.00000000000000     0.00000000000000     0.00000000000000
   35     0.00000000000000     0.00000000000000     0.00000000000000     0.00000000000000     0.00000000000000
   36     0.00000000000000     0.00000000000000     0.00000000000000     0.00000000000000     0.00000000000000
   37     0.00000000000000     0.00000000000000     0.00000000000000     0.00000000000000     0.00000000000000
   38     0.00000000000000     0.00000000000000     0.00000000000000     0.00000000000000     0.00000000000000
   39     0.00000000000000     0.00000000000000     0.00000000000000     0.00000000000000     0.00000000000000
   40     0.00000000000000     0.00000000000000     0.00000000000000     0.00000000000000     0.00000000000000
   41     0.00000000000000     0.00000000000000     0.00000000000000     0.00000000000000     0.00000000000000
   42     0.00000000000000     0.00000000000000     0.00000000000000     0.00000000000000     0.00000000000000
   43     0.00000000000000     0.00000000000000     0.00000000000000     0.00000000000000     0.00000000000000
   44     0.00000000000000     0.00000000000000     0.00000000000000     0.00000000000000     0.00000000000000
   45     0.00000000000000     0.00000000000000     0.00000000000000     0.00000000000000     0.00000000000000
   46     0.00000000000000     0.00000000000000     0.00000000000000     0.00000000000000     0.00000000000000
   47     0.00000000000000     0.00000000000000     0.00000000000000     0.00000000000000     0.00000000000000
   48     0.00000000000000     0.00000000000000     0.00000000000000     0.00000000000000     0.00000000000000

                11                  12                  13                  14                  15

    1     0.00000000000000     0.00000000000000     0.00000000000000     0.00000000000000     0.00000000000000
    2     0.00000000000000     0.00000000000000     0.00000000000000     0.00000000000000     0.00000000000000
    3     0.00000000000000     0.00000000000000     0.00000000000000     0.00000000000000     0.00000000000000
    4     0.00000000000000     0.00000000000000     0.00000000000000     0.00000000000000     0.00000000000000
    5     0.00000000000000     0.00000000000000     0.00000000000000     0.00000000000000     0.00000000000000
    6     0.00000000000000     0.00000000000000     0.00000000000000     0.00000000000000     0.00000000000000
    7     0.00000000000000     0.00000000000000     0.00000000000000     0.00000000000000     0.00000000000000
    8     0.00000000000000     0.00000000000000     0.00000000000000     0.00000000000000     0.00000000000000
    9     0.00000000000000     0.00000000000000     0.00000000000000     0.00000000000000     0.00000000000000
   10     0.00000000000000     0.00000000000000     0.00000000000000     0.00000000000000     0.00000000000000
   11     0.00000000000000     0.00000000000000     0.00000000000000     0.00000000000000     0.00000000000000
   12     0.00000000000000     0.00000000000000     0.00000000000000     0.00000000000000     0.00000000000000
   13     0.00000000000000     0.00000000000000     0.00000000000000     0.00000000000000     0.00000000000000
   14     0.00000000000000     0.00000000000000     0.00000000000000     0.00000000000000     0.00000000000000
   15     0.00000000000000     0.00000000000000     0.00000000000000     0.00000000000000     0.00000000000000
   16     0.00000000000000     0.00000000000000     0.00000000000000     0.00000000000000     0.00000000000000
   17     0.00000000000000     0.00000000000000     0.00000000000000     0.00000000000000     0.00000000000000
   18     0.00000000000000     0.00000000000000     0.00000000000000     0.00000000000000     0.00000000000000
   19     0.00000000000000     0.00000000000000     0.00000000000000     0.00000000000000     0.00000000000000
   20     0.00000000000000     0.00000000000000     0.00000000000000     0.00000000000000     0.00000000000000
   21     0.00000000000000     0.00000000000000     0.00000000000000     0.00000000000000     0.00000000000000
   22     0.00000000000000     0.00000000000000     0.00000000000000     0.00000000000000     0.00000000000000
   23     0.00000000000000     0.00000000000000     0.00000000000000     0.00000000000000     0.00000000000000
   24     0.00000000000000     0.00000000000000     0.00000000000000     0.00000000000000     0.00000000000000
   25     0.00000000000000     0.00000000000000     0.00000000000000     0.00000000000000     0.00000000000000
   26     0.00000000000000     0.00000000000000     0.00000000000000     0.00000000000000     0.00000000000000
   27     0.00000000000000     0.00000000000000     0.00000000000000     0.00000000000000     0.00000000000000
   28     0.00000000000000     0.00000000000000     0.00000000000000     0.00000000000000     0.00000000000000
   29     0.00000000000000     0.00000000000000     0.00000000000000     0.00000000000000     0.00000000000000
   30     0.00000000000000     0.00000000000000     0.00000000000000     0.00000000000000     0.00000000000000
   31     0.00000000000000     0.00000000000000     0.00000000000000     0.00000000000000     0.00000000000000
   32     0.00000000000000     0.00000000000000     0.00000000000000     0.00000000000000     0.00000000000000
   33     0.00000000000000     0.00000000000000     0.00000000000000     0.00000000000000     0.00000000000000
   34     0.00000000000000     0.00000000000000     0.00000000000000     0.00000000000000     0.00000000000000
   35     0.00000000000000     0.00000000000000     0.00000000000000     0.00000000000000     0.00000000000000
   36     0.00000000000000     0.00000000000000     0.00000000000000     0.00000000000000     0.00000000000000
   37     0.00000000000000     0.00000000000000     0.00000000000000     0.00000000000000     0.00000000000000
   38     0.00000000000000     0.00000000000000     0.00000000000000     0.00000000000000     0.00000000000000
   39     0.00000000000000     0.00000000000000     0.00000000000000     0.00000000000000     0.00000000000000
   40     0.00000000000000     0.00000000000000     0.00000000000000     0.00000000000000     0.00000000000000
   41     0.00000000000000     0.00000000000000     0.00000000000000     0.00000000000000     0.00000000000000
   42     0.00000000000000     0.00000000000000     0.00000000000000     0.00000000000000     0.00000000000000
   43     0.00000000000000     0.00000000000000     0.00000000000000     0.00000000000000     0.00000000000000
   44     0.00000000000000     0.00000000000000     0.00000000000000     0.00000000000000     0.00000000000000
   45     0.00000000000000     0.00000000000000     0.00000000000000     0.00000000000000     0.00000000000000
   46     0.00000000000000     0.00000000000000     0.00000000000000     0.00000000000000     0.00000000000000
   47     0.00000000000000     0.00000000000000     0.00000000000000     0.00000000000000     0.00000000000000
   48     0.00000000000000     0.00000000000000     0.00000000000000     0.00000000000000     0.00000000000000

                16                  17                  18                  19                  20

    1     0.00000000000000     0.00000000000000     0.00000000000000     0.00000000000000     0.00000000000000
    2     0.00000000000000     0.00000000000000     0.00000000000000     0.00000000000000     0.00000000000000
    3     0.00000000000000     0.00000000000000     0.00000000000000     0.00000000000000     0.00000000000000
    4     0.00000000000000     0.00000000000000     0.00000000000000     0.00000000000000     0.00000000000000
    5     0.00000000000000     0.00000000000000     0.00000000000000     0.00000000000000     0.00000000000000
    6     0.00000000000000     0.00000000000000     0.00000000000000     0.00000000000000     0.00000000000000
    7     0.00000000000000     0.00000000000000     0.00000000000000     0.00000000000000     0.00000000000000
    8     0.00000000000000     0.00000000000000     0.00000000000000     0.00000000000000     0.00000000000000
    9     0.00000000000000     0.00000000000000     0.00000000000000     0.00000000000000     0.00000000000000
   10     0.00000000000000     0.00000000000000     0.00000000000000     0.00000000000000     0.00000000000000
   11     0.00000000000000     0.00000000000000     0.00000000000000     0.00000000000000     0.00000000000000
   12     0.00000000000000     0.00000000000000     0.00000000000000     0.00000000000000     0.00000000000000
   13     0.00000000000000     0.00000000000000     0.00000000000000     0.00000000000000     0.00000000000000
   14     0.00000000000000     0.00000000000000     0.00000000000000     0.00000000000000     0.00000000000000
   15     0.00000000000000     0.00000000000000     0.00000000000000     0.00000000000000     0.00000000000000
   16     0.00000000000000     0.00000000000000     0.00000000000000     0.00000000000000     0.00000000000000
   17     0.00000000000000     0.00000000000000     0.00000000000000     0.00000000000000     0.00000000000000
   18     0.00000000000000     0.00000000000000     0.00000000000000     0.00000000000000     0.00000000000000
   19     0.00000000000000     0.00000000000000     0.00000000000000     0.00000000000000     0.00000000000000
   20     0.00000000000000     0.00000000000000     0.00000000000000     0.00000000000000     0.00000000000000
   21     0.00000000000000     0.00000000000000     0.00000000000000     0.00000000000000     0.00000000000000
   22     0.00000000000000     0.00000000000000     0.00000000000000     0.00000000000000     0.00000000000000
   23     0.00000000000000     0.00000000000000     0.00000000000000     0.00000000000000     0.00000000000000
   24     0.00000000000000     0.00000000000000     0.00000000000000     0.00000000000000     0.00000000000000
   25     0.00000000000000     0.00000000000000     0.00000000000000     0.00000000000000     0.00000000000000
   26     0.00000000000000     0.00000000000000     0.00000000000000     0.00000000000000     0.00000000000000
   27     0.00000000000000     0.00000000000000     0.00000000000000     0.00000000000000     0.00000000000000
   28     0.00000000000000     0.00000000000000     0.00000000000000     0.00000000000000     0.00000000000000
   29     0.00000000000000     0.00000000000000     0.00000000000000     0.00000000000000     0.00000000000000
   30     0.00000000000000     0.00000000000000     0.00000000000000     0.00000000000000     0.00000000000000
   31     0.00000000000000     0.00000000000000     0.00000000000000     0.00000000000000     0.00000000000000
   32     0.00000000000000     0.00000000000000     0.00000000000000     0.00000000000000     0.00000000000000
   33     0.00000000000000     0.00000000000000     0.00000000000000     0.00000000000000     0.00000000000000
   34     0.00000000000000     0.00000000000000     0.00000000000000     0.00000000000000     0.00000000000000
   35     0.00000000000000     0.00000000000000     0.00000000000000     0.00000000000000     0.00000000000000
   36     0.00000000000000     0.00000000000000     0.00000000000000     0.00000000000000     0.00000000000000
   37     0.00000000000000     0.00000000000000     0.00000000000000     0.00000000000000     0.00000000000000
   38     0.00000000000000     0.00000000000000     0.00000000000000     0.00000000000000     0.00000000000000
   39     0.00000000000000     0.00000000000000     0.00000000000000     0.00000000000000     0.00000000000000
   40     0.00000000000000     0.00000000000000     0.00000000000000     0.00000000000000     0.00000000000000
   41     0.00000000000000     0.00000000000000     0.00000000000000     0.00000000000000     0.00000000000000
   42     0.00000000000000     0.00000000000000     0.00000000000000     0.00000000000000     0.00000000000000
   43     0.00000000000000     0.00000000000000     0.00000000000000     0.00000000000000     0.00000000000000
   44     0.00000000000000     0.00000000000000     0.00000000000000     0.00000000000000     0.00000000000000
   45     0.00000000000000     0.00000000000000     0.00000000000000     0.00000000000000     0.00000000000000
   46     0.00000000000000     0.00000000000000     0.00000000000000     0.00000000000000     0.00000000000000
   47     0.00000000000000     0.00000000000000     0.00000000000000     0.00000000000000     0.00000000000000
   48     0.00000000000000     0.00000000000000     0.00000000000000     0.00000000000000     0.00000000000000

                21                  22                  23                  24                  25

    1     0.00000000000000     0.00000000000000     0.00000000000000     0.00000000000000     0.00000000000000
    2     0.00000000000000     0.00000000000000     0.00000000000000     0.00000000000000     0.00000000000000
    3     0.00000000000000     0.00000000000000     0.00000000000000     0.00000000000000     0.00000000000000
    4     0.00000000000000     0.00000000000000     0.00000000000000     0.00000000000000     0.00000000000000
    5     0.00000000000000     0.00000000000000     0.00000000000000     0.00000000000000     0.00000000000000
    6     0.00000000000000     0.00000000000000     0.00000000000000     0.00000000000000     0.00000000000000
    7     0.00000000000000     0.00000000000000     0.00000000000000     0.00000000000000     0.00000000000000
    8     0.00000000000000     0.00000000000000     0.00000000000000     0.00000000000000     0.00000000000000
    9     0.00000000000000     0.00000000000000     0.00000000000000     0.00000000000000     0.00000000000000
   10     0.00000000000000     0.00000000000000     0.00000000000000     0.00000000000000     0.00000000000000
   11     0.00000000000000     0.00000000000000     0.00000000000000     0.00000000000000     0.00000000000000
   12     0.00000000000000     0.00000000000000     0.00000000000000     0.00000000000000     0.00000000000000
   13     0.00000000000000     0.00000000000000     0.00000000000000     0.00000000000000     0.00000000000000
   14     0.00000000000000     0.00000000000000     0.00000000000000     0.00000000000000     0.00000000000000
   15     0.00000000000000     0.00000000000000     0.00000000000000     0.00000000000000     0.00000000000000
   16     0.00000000000000     0.00000000000000     0.00000000000000     0.00000000000000     0.00000000000000
   17     0.00000000000000     0.00000000000000     0.00000000000000     0.00000000000000     0.00000000000000
   18     0.00000000000000     0.00000000000000     0.00000000000000     0.00000000000000     0.00000000000000
   19     0.00000000000000     0.00000000000000     0.00000000000000     0.00000000000000     0.00000000000000
   20     0.00000000000000     0.00000000000000     0.00000000000000     0.00000000000000     0.00000000000000
   21     0.00000000000000     0.00000000000000     0.00000000000000     0.00000000000000     0.00000000000000
   22     0.00000000000000     0.00000000000000     0.00000000000000     0.00000000000000     0.00000000000000
   23     0.00000000000000     0.00000000000000     0.00000000000000     0.00000000000000     0.00000000000000
   24     0.00000000000000     0.00000000000000     0.00000000000000     0.00000000000000     0.00000000000000
   25     0.00000000000000     0.00000000000000     0.00000000000000     0.00000000000000     0.00000000000000
   26     0.00000000000000     0.00000000000000     0.00000000000000     0.00000000000000     0.00000000000000
   27     0.00000000000000     0.00000000000000     0.00000000000000     0.00000000000000     0.00000000000000
   28     0.00000000000000     0.00000000000000     0.00000000000000     0.00000000000000     0.00000000000000
   29     0.00000000000000     0.00000000000000     0.00000000000000     0.00000000000000     0.00000000000000
   30     0.00000000000000     0.00000000000000     0.00000000000000     0.00000000000000     0.00000000000000
   31     0.00000000000000     0.00000000000000     0.00000000000000     0.00000000000000     0.00000000000000
   32     0.00000000000000     0.00000000000000     0.00000000000000     0.00000000000000     0.00000000000000
   33     0.00000000000000     0.00000000000000     0.00000000000000     0.00000000000000     0.00000000000000
   34     0.00000000000000     0.00000000000000     0.00000000000000     0.00000000000000     0.00000000000000
   35     0.00000000000000     0.00000000000000     0.00000000000000     0.00000000000000     0.00000000000000
   36     0.00000000000000     0.00000000000000     0.00000000000000     0.00000000000000     0.00000000000000
   37     0.00000000000000     0.00000000000000     0.00000000000000     0.00000000000000     0.00000000000000
   38     0.00000000000000     0.00000000000000     0.00000000000000     0.00000000000000     0.00000000000000
   39     0.00000000000000     0.00000000000000     0.00000000000000     0.00000000000000     0.00000000000000
   40     0.00000000000000     0.00000000000000     0.00000000000000     0.00000000000000     0.00000000000000
   41     0.00000000000000     0.00000000000000     0.00000000000000     0.00000000000000     0.00000000000000
   42     0.00000000000000     0.00000000000000     0.00000000000000     0.00000000000000     0.00000000000000
   43     0.00000000000000     0.00000000000000     0.00000000000000     0.00000000000000     0.00000000000000
   44     0.00000000000000     0.00000000000000     0.00000000000000     0.00000000000000     0.00000000000000
   45     0.00000000000000     0.00000000000000     0.00000000000000     0.00000000000000     0.00000000000000
   46     0.00000000000000     0.00000000000000     0.00000000000000     0.00000000000000     0.00000000000000
   47     0.00000000000000     0.00000000000000     0.00000000000000     0.00000000000000     0.00000000000000
   48     0.00000000000000     0.00000000000000     0.00000000000000     0.00000000000000     0.00000000000000

                26                  27                  28                  29                  30

    1     0.00000000000000     0.00000000000000     0.00000000000000     0.00000000000000     0.00000000000000
    2     0.00000000000000     0.00000000000000     0.00000000000000     0.00000000000000     0.00000000000000
    3     0.00000000000000     0.00000000000000     0.00000000000000     0.00000000000000     0.00000000000000
    4     0.00000000000000     0.00000000000000     0.00000000000000     0.00000000000000     0.00000000000000
    5     0.00000000000000     0.00000000000000     0.00000000000000     0.00000000000000     0.00000000000000
    6     0.00000000000000     0.00000000000000     0.00000000000000     0.00000000000000     0.00000000000000
    7     0.00000000000000     0.00000000000000     0.00000000000000     0.00000000000000     0.00000000000000
    8     0.00000000000000     0.00000000000000     0.00000000000000     0.00000000000000     0.00000000000000
    9     0.00000000000000     0.00000000000000     0.00000000000000     0.00000000000000     0.00000000000000
   10     0.00000000000000     0.00000000000000     0.00000000000000     0.00000000000000     0.00000000000000
   11     0.00000000000000     0.00000000000000     0.00000000000000     0.00000000000000     0.00000000000000
   12     0.00000000000000     0.00000000000000     0.00000000000000     0.00000000000000     0.00000000000000
   13     0.00000000000000     0.00000000000000     0.00000000000000     0.00000000000000     0.00000000000000
   14     0.00000000000000     0.00000000000000     0.00000000000000     0.00000000000000     0.00000000000000
   15     0.00000000000000     0.00000000000000     0.00000000000000     0.00000000000000     0.00000000000000
   16     0.00000000000000     0.00000000000000     0.00000000000000     0.00000000000000     0.00000000000000
   17     0.00000000000000     0.00000000000000     0.00000000000000     0.00000000000000     0.00000000000000
   18     0.00000000000000     0.00000000000000     0.00000000000000     0.00000000000000     0.00000000000000
   19     0.00000000000000     0.00000000000000     0.00000000000000     0.00000000000000     0.00000000000000
   20     0.00000000000000     0.00000000000000     0.00000000000000     0.00000000000000     0.00000000000000
   21     0.00000000000000     0.00000000000000     0.00000000000000     0.00000000000000     0.00000000000000
   22     0.00000000000000     0.00000000000000     0.00000000000000     0.00000000000000     0.00000000000000
   23     0.00000000000000     0.00000000000000     0.00000000000000     0.00000000000000     0.00000000000000
   24     0.00000000000000     0.00000000000000     0.00000000000000     0.00000000000000     0.00000000000000
   25     0.00000000000000     0.00000000000000     0.00000000000000     0.00000000000000     0.00000000000000
   26     0.00000000000000     0.00000000000000     0.00000000000000     0.00000000000000     0.00000000000000
   27     0.00000000000000     0.00000000000000     0.00000000000000     0.00000000000000     0.00000000000000
   28     0.00000000000000     0.00000000000000     0.00000000000000     0.00000000000000     0.00000000000000
   29     0.00000000000000     0.00000000000000     0.00000000000000     0.00000000000000     0.00000000000000
   30     0.00000000000000     0.00000000000000     0.00000000000000     0.00000000000000     0.00000000000000
   31     0.00000000000000     0.00000000000000     0.00000000000000     0.00000000000000     0.00000000000000
   32     0.00000000000000     0.00000000000000     0.00000000000000     0.00000000000000     0.00000000000000
   33     0.00000000000000     0.00000000000000     0.00000000000000     0.00000000000000     0.00000000000000
   34     0.00000000000000     0.00000000000000     0.00000000000000     0.00000000000000     0.00000000000000
   35     0.00000000000000     0.00000000000000     0.00000000000000     0.00000000000000     0.00000000000000
   36     0.00000000000000     0.00000000000000     0.00000000000000     0.00000000000000     0.00000000000000
   37     0.00000000000000     0.00000000000000     0.00000000000000     0.00000000000000     0.00000000000000
   38     0.00000000000000     0.00000000000000     0.00000000000000     0.00000000000000     0.00000000000000
   39     0.00000000000000     0.00000000000000     0.00000000000000     0.00000000000000     0.00000000000000
   40     0.00000000000000     0.00000000000000     0.00000000000000     0.00000000000000     0.00000000000000
   41     0.00000000000000     0.00000000000000     0.00000000000000     0.00000000000000     0.00000000000000
   42     0.00000000000000     0.00000000000000     0.00000000000000     0.00000000000000     0.00000000000000
   43     0.00000000000000     0.00000000000000     0.00000000000000     0.00000000000000     0.00000000000000
   44     0.00000000000000     0.00000000000000     0.00000000000000     0.00000000000000     0.00000000000000
   45     0.00000000000000     0.00000000000000     0.00000000000000     0.00000000000000     0.00000000000000
   46     0.00000000000000     0.00000000000000     0.00000000000000     0.00000000000000     0.00000000000000
   47     0.00000000000000     0.00000000000000     0.00000000000000     0.00000000000000     0.00000000000000
   48     0.00000000000000     0.00000000000000     0.00000000000000     0.00000000000000     0.00000000000000

                31                  32                  33                  34                  35

    1     0.00000000000000     0.00000000000000     0.00000000000000     0.00000000000000     0.00000000000000
    2     0.00000000000000     0.00000000000000     0.00000000000000     0.00000000000000     0.00000000000000
    3     0.00000000000000     0.00000000000000     0.00000000000000     0.00000000000000     0.00000000000000
    4     0.00000000000000     0.00000000000000     0.00000000000000     0.00000000000000     0.00000000000000
    5     0.00000000000000     0.00000000000000     0.00000000000000     0.00000000000000     0.00000000000000
    6     0.00000000000000     0.00000000000000     0.00000000000000     0.00000000000000     0.00000000000000
    7     0.00000000000000     0.00000000000000     0.00000000000000     0.00000000000000     0.00000000000000
    8     0.00000000000000     0.00000000000000     0.00000000000000     0.00000000000000     0.00000000000000
    9     0.00000000000000     0.00000000000000     0.00000000000000     0.00000000000000     0.00000000000000
   10     0.00000000000000     0.00000000000000     0.00000000000000     0.00000000000000     0.00000000000000
   11     0.00000000000000     0.00000000000000     0.00000000000000     0.00000000000000     0.00000000000000
   12     0.00000000000000     0.00000000000000     0.00000000000000     0.00000000000000     0.00000000000000
   13     0.00000000000000     0.00000000000000     0.00000000000000     0.00000000000000     0.00000000000000
   14     0.00000000000000     0.00000000000000     0.00000000000000     0.00000000000000     0.00000000000000
   15     0.00000000000000     0.00000000000000     0.00000000000000     0.00000000000000     0.00000000000000
   16     0.00000000000000     0.00000000000000     0.00000000000000     0.00000000000000     0.00000000000000
   17     0.00000000000000     0.00000000000000     0.00000000000000     0.00000000000000     0.00000000000000
   18     0.00000000000000     0.00000000000000     0.00000000000000     0.00000000000000     0.00000000000000
   19     0.00000000000000     0.00000000000000     0.00000000000000     0.00000000000000     0.00000000000000
   20     0.00000000000000     0.00000000000000     0.00000000000000     0.00000000000000     0.00000000000000
   21     0.00000000000000     0.00000000000000     0.00000000000000     0.00000000000000     0.00000000000000
   22     0.00000000000000     0.00000000000000     0.00000000000000     0.00000000000000     0.00000000000000
   23     0.00000000000000     0.00000000000000     0.00000000000000     0.00000000000000     0.00000000000000
   24     0.00000000000000     0.00000000000000     0.00000000000000     0.00000000000000     0.00000000000000
   25     0.00000000000000     0.00000000000000     0.00000000000000     0.00000000000000     0.00000000000000
   26     0.00000000000000     0.00000000000000     0.00000000000000     0.00000000000000     0.00000000000000
   27     0.00000000000000     0.00000000000000     0.00000000000000     0.00000000000000     0.00000000000000
   28     0.00000000000000     0.00000000000000     0.00000000000000     0.00000000000000     0.00000000000000
   29     0.00000000000000     0.00000000000000     0.00000000000000     0.00000000000000     0.00000000000000
   30     0.00000000000000     0.00000000000000     0.00000000000000     0.00000000000000     0.00000000000000
   31     0.00000000000000     0.00000000000000     0.00000000000000     0.00000000000000     0.00000000000000
   32     0.00000000000000     0.00000000000000     0.00000000000000     0.00000000000000     0.00000000000000
   33     0.00000000000000     0.00000000000000     0.00000000000000     0.00000000000000     0.00000000000000
   34     0.00000000000000     0.00000000000000     0.00000000000000     0.00000000000000     0.00000000000000
   35     0.00000000000000     0.00000000000000     0.00000000000000     0.00000000000000     0.00000000000000
   36     0.00000000000000     0.00000000000000     0.00000000000000     0.00000000000000     0.00000000000000
   37     0.00000000000000     0.00000000000000     0.00000000000000     0.00000000000000     0.00000000000000
   38     0.00000000000000     0.00000000000000     0.00000000000000     0.00000000000000     0.00000000000000
   39     0.00000000000000     0.00000000000000     0.00000000000000     0.00000000000000     0.00000000000000
   40     0.00000000000000     0.00000000000000     0.00000000000000     0.00000000000000     0.00000000000000
   41     0.00000000000000     0.00000000000000     0.00000000000000     0.00000000000000     0.00000000000000
   42     0.00000000000000     0.00000000000000     0.00000000000000     0.00000000000000     0.00000000000000
   43     0.00000000000000     0.00000000000000     0.00000000000000     0.00000000000000     0.00000000000000
   44     0.00000000000000     0.00000000000000     0.00000000000000     0.00000000000000     0.00000000000000
   45     0.00000000000000     0.00000000000000     0.00000000000000     0.00000000000000     0.00000000000000
   46     0.00000000000000     0.00000000000000     0.00000000000000     0.00000000000000     0.00000000000000
   47     0.00000000000000     0.00000000000000     0.00000000000000     0.00000000000000     0.00000000000000
   48     0.00000000000000     0.00000000000000     0.00000000000000     0.00000000000000     0.00000000000000

                36                  37                  38                  39                  40

    1     0.00000000000000     0.00000000000000     0.00000000000000     0.00000000000000     0.00000000000000
    2     0.00000000000000     0.00000000000000     0.00000000000000     0.00000000000000     0.00000000000000
    3     0.00000000000000     0.00000000000000     0.00000000000000     0.00000000000000     0.00000000000000
    4     0.00000000000000     0.00000000000000     0.00000000000000     0.00000000000000     0.00000000000000
    5     0.00000000000000     0.00000000000000     0.00000000000000     0.00000000000000     0.00000000000000
    6     0.00000000000000     0.00000000000000     0.00000000000000     0.00000000000000     0.00000000000000
    7     0.00000000000000     0.00000000000000     0.00000000000000     0.00000000000000     0.00000000000000
    8     0.00000000000000     0.00000000000000     0.00000000000000     0.00000000000000     0.00000000000000
    9     0.00000000000000     0.00000000000000     0.00000000000000     0.00000000000000     0.00000000000000
   10     0.00000000000000     0.00000000000000     0.00000000000000     0.00000000000000     0.00000000000000
   11     0.00000000000000     0.00000000000000     0.00000000000000     0.00000000000000     0.00000000000000
   12     0.00000000000000     0.00000000000000     0.00000000000000     0.00000000000000     0.00000000000000
   13     0.00000000000000     0.00000000000000     0.00000000000000     0.00000000000000     0.00000000000000
   14     0.00000000000000     0.00000000000000     0.00000000000000     0.00000000000000     0.00000000000000
   15     0.00000000000000     0.00000000000000     0.00000000000000     0.00000000000000     0.00000000000000
   16     0.00000000000000     0.00000000000000     0.00000000000000     0.00000000000000     0.00000000000000
   17     0.00000000000000     0.00000000000000     0.00000000000000     0.00000000000000     0.00000000000000
   18     0.00000000000000     0.00000000000000     0.00000000000000     0.00000000000000     0.00000000000000
   19     0.00000000000000     0.00000000000000     0.00000000000000     0.00000000000000     0.00000000000000
   20     0.00000000000000     0.00000000000000     0.00000000000000     0.00000000000000     0.00000000000000
   21     0.00000000000000     0.00000000000000     0.00000000000000     0.00000000000000     0.00000000000000
   22     0.00000000000000     0.00000000000000     0.00000000000000     0.00000000000000     0.00000000000000
   23     0.00000000000000     0.00000000000000     0.00000000000000     0.00000000000000     0.00000000000000
   24     0.00000000000000     0.00000000000000     0.00000000000000     0.00000000000000     0.00000000000000
   25     0.00000000000000     0.00000000000000     0.00000000000000     0.00000000000000     0.00000000000000
   26     0.00000000000000     0.00000000000000     0.00000000000000     0.00000000000000     0.00000000000000
   27     0.00000000000000     0.00000000000000     0.00000000000000     0.00000000000000     0.00000000000000
   28     0.00000000000000     0.00000000000000     0.00000000000000     0.00000000000000     0.00000000000000
   29     0.00000000000000     0.00000000000000     0.00000000000000     0.00000000000000     0.00000000000000
   30     0.00000000000000     0.00000000000000     0.00000000000000     0.00000000000000     0.00000000000000
   31     0.00000000000000     0.00000000000000     0.00000000000000     0.00000000000000     0.00000000000000
   32     0.00000000000000     0.00000000000000     0.00000000000000     0.00000000000000     0.00000000000000
   33     0.00000000000000     0.00000000000000     0.00000000000000     0.00000000000000     0.00000000000000
   34     0.00000000000000     0.00000000000000     0.00000000000000     0.00000000000000     0.00000000000000
   35     0.00000000000000     0.00000000000000     0.00000000000000     0.00000000000000     0.00000000000000
   36     0.00000000000000     0.00000000000000     0.00000000000000     0.00000000000000     0.00000000000000
   37     0.00000000000000     0.00000000000000     0.00000000000000     0.00000000000000     0.00000000000000
   38     0.00000000000000     0.00000000000000     0.00000000000000     0.00000000000000     0.00000000000000
   39     0.00000000000000     0.00000000000000     0.00000000000000     0.00000000000000     0.00000000000000
   40     0.00000000000000     0.00000000000000     0.00000000000000     0.00000000000000     0.00000000000000
   41     0.00000000000000     0.00000000000000     0.00000000000000     0.00000000000000     0.00000000000000
   42     0.00000000000000     0.00000000000000     0.00000000000000     0.00000000000000     0.00000000000000
   43     0.00000000000000     0.00000000000000     0.00000000000000     0.00000000000000     0.00000000000000
   44     0.00000000000000     0.00000000000000     0.00000000000000     0.00000000000000     0.00000000000000
   45     0.00000000000000     0.00000000000000     0.00000000000000     0.00000000000000     0.00000000000000
   46     0.00000000000000     0.00000000000000     0.00000000000000     0.00000000000000     0.00000000000000
   47     0.00000000000000     0.00000000000000     0.00000000000000     0.00000000000000     0.00000000000000
   48     0.00000000000000     0.00000000000000     0.00000000000000     0.00000000000000     0.00000000000000

                41                  42                  43                  44                  45

    1     0.00000000000000     0.00000000000000     0.00000000000000     0.00000000000000     0.00000000000000
    2     0.00000000000000     0.00000000000000     0.00000000000000     0.00000000000000     0.00000000000000
    3     0.00000000000000     0.00000000000000     0.00000000000000     0.00000000000000     0.00000000000000
    4     0.00000000000000     0.00000000000000     0.00000000000000     0.00000000000000     0.00000000000000
    5     0.00000000000000     0.00000000000000     0.00000000000000     0.00000000000000     0.00000000000000
    6     0.00000000000000     0.00000000000000     0.00000000000000     0.00000000000000     0.00000000000000
    7     0.00000000000000     0.00000000000000     0.00000000000000     0.00000000000000     0.00000000000000
    8     0.00000000000000     0.00000000000000     0.00000000000000     0.00000000000000     0.00000000000000
    9     0.00000000000000     0.00000000000000     0.00000000000000     0.00000000000000     0.00000000000000
   10     0.00000000000000     0.00000000000000     0.00000000000000     0.00000000000000     0.00000000000000
   11     0.00000000000000     0.00000000000000     0.00000000000000     0.00000000000000     0.00000000000000
   12     0.00000000000000     0.00000000000000     0.00000000000000     0.00000000000000     0.00000000000000
   13     0.00000000000000     0.00000000000000     0.00000000000000     0.00000000000000     0.00000000000000
   14     0.00000000000000     0.00000000000000     0.00000000000000     0.00000000000000     0.00000000000000
   15     0.00000000000000     0.00000000000000     0.00000000000000     0.00000000000000     0.00000000000000
   16     0.00000000000000     0.00000000000000     0.00000000000000     0.00000000000000     0.00000000000000
   17     0.00000000000000     0.00000000000000     0.00000000000000     0.00000000000000     0.00000000000000
   18     0.00000000000000     0.00000000000000     0.00000000000000     0.00000000000000     0.00000000000000
   19     0.00000000000000     0.00000000000000     0.00000000000000     0.00000000000000     0.00000000000000
   20     0.00000000000000     0.00000000000000     0.00000000000000     0.00000000000000     0.00000000000000
   21     0.00000000000000     0.00000000000000     0.00000000000000     0.00000000000000     0.00000000000000
   22     0.00000000000000     0.00000000000000     0.00000000000000     0.00000000000000     0.00000000000000
   23     0.00000000000000     0.00000000000000     0.00000000000000     0.00000000000000     0.00000000000000
   24     0.00000000000000     0.00000000000000     0.00000000000000     0.00000000000000     0.00000000000000
   25     0.00000000000000     0.00000000000000     0.00000000000000     0.00000000000000     0.00000000000000
   26     0.00000000000000     0.00000000000000     0.00000000000000     0.00000000000000     0.00000000000000
   27     0.00000000000000     0.00000000000000     0.00000000000000     0.00000000000000     0.00000000000000
   28     0.00000000000000     0.00000000000000     0.00000000000000     0.00000000000000     0.00000000000000
   29     0.00000000000000     0.00000000000000     0.00000000000000     0.00000000000000     0.00000000000000
   30     0.00000000000000     0.00000000000000     0.00000000000000     0.00000000000000     0.00000000000000
   31     0.00000000000000     0.00000000000000     0.00000000000000     0.00000000000000     0.00000000000000
   32     0.00000000000000     0.00000000000000     0.00000000000000     0.00000000000000     0.00000000000000
   33     0.00000000000000     0.00000000000000     0.00000000000000     0.00000000000000     0.00000000000000
   34     0.00000000000000     0.00000000000000     0.00000000000000     0.00000000000000     0.00000000000000
   35     0.00000000000000     0.00000000000000     0.00000000000000     0.00000000000000     0.00000000000000
   36     0.00000000000000     0.00000000000000     0.00000000000000     0.00000000000000     0.00000000000000
   37     0.00000000000000     0.00000000000000     0.00000000000000     0.00000000000000     0.00000000000000
   38     0.00000000000000     0.00000000000000     0.00000000000000     0.00000000000000     0.00000000000000
   39     0.00000000000000     0.00000000000000     0.00000000000000     0.00000000000000     0.00000000000000
   40     0.00000000000000     0.00000000000000     0.00000000000000     0.00000000000000     0.00000000000000
   41     0.00000000000000     0.00000000000000     0.00000000000000     0.00000000000000     0.00000000000000
   42     0.00000000000000     0.00000000000000     0.00000000000000     0.00000000000000     0.00000000000000
   43     0.00000000000000     0.00000000000000     0.00000000000000     0.00000000000000     0.00000000000000
   44     0.00000000000000     0.00000000000000     0.00000000000000     0.00000000000000     0.00000000000000
   45     0.00000000000000     0.00000000000000     0.00000000000000     0.00000000000000     0.00000000000000
   46     0.00000000000000     0.00000000000000     0.00000000000000     0.00000000000000     0.00000000000000
   47     0.00000000000000     0.00000000000000     0.00000000000000     0.00000000000000     0.00000000000000
   48     0.00000000000000     0.00000000000000     0.00000000000000     0.00000000000000     0.00000000000000

                46                  47                  48

    1     0.00000000000000     0.00000000000000     0.00000000000000
    2     0.00000000000000     0.00000000000000     0.00000000000000
    3     0.00000000000000     0.00000000000000     0.00000000000000
    4     0.00000000000000     0.00000000000000     0.00000000000000
    5     0.00000000000000     0.00000000000000     0.00000000000000
    6     0.00000000000000     0.00000000000000     0.00000000000000
    7     0.00000000000000     0.00000000000000     0.00000000000000
    8     0.00000000000000     0.00000000000000     0.00000000000000
    9     0.00000000000000     0.00000000000000     0.00000000000000
   10     0.00000000000000     0.00000000000000     0.00000000000000
   11     0.00000000000000     0.00000000000000     0.00000000000000
   12     0.00000000000000     0.00000000000000     0.00000000000000
   13     0.00000000000000     0.00000000000000     0.00000000000000
   14     0.00000000000000     0.00000000000000     0.00000000000000
   15     0.00000000000000     0.00000000000000     0.00000000000000
   16     0.00000000000000     0.00000000000000     0.00000000000000
   17     0.00000000000000     0.00000000000000     0.00000000000000
   18     0.00000000000000     0.00000000000000     0.00000000000000
   19     0.00000000000000     0.00000000000000     0.00000000000000
   20     0.00000000000000     0.00000000000000     0.00000000000000
   21     0.00000000000000     0.00000000000000     0.00000000000000
   22     0.00000000000000     0.00000000000000     0.00000000000000
   23     0.00000000000000     0.00000000000000     0.00000000000000
   24     0.00000000000000     0.00000000000000     0.00000000000000
   25     0.00000000000000     0.00000000000000     0.00000000000000
   26     0.00000000000000     0.00000000000000     0.00000000000000
   27     0.00000000000000     0.00000000000000     0.00000000000000
   28     0.00000000000000     0.00000000000000     0.00000000000000
   29     0.00000000000000     0.00000000000000     0.00000000000000
   30     0.00000000000000     0.00000000000000     0.00000000000000
   31     0.00000000000000     0.00000000000000     0.00000000000000
   32     0.00000000000000     0.00000000000000     0.00000000000000
   33     0.00000000000000     0.00000000000000     0.00000000000000
   34     0.00000000000000     0.00000000000000     0.00000000000000
   35     0.00000000000000     0.00000000000000     0.00000000000000
   36     0.00000000000000     0.00000000000000     0.00000000000000
   37     0.00000000000000     0.00000000000000     0.00000000000000
   38     0.00000000000000     0.00000000000000     0.00000000000000
   39     0.00000000000000     0.00000000000000     0.00000000000000
   40     0.00000000000000     0.00000000000000     0.00000000000000
   41     0.00000000000000     0.00000000000000     0.00000000000000
   42     0.00000000000000     0.00000000000000     0.00000000000000
   43     0.00000000000000     0.00000000000000     0.00000000000000
   44     0.00000000000000     0.00000000000000     0.00000000000000
   45     0.00000000000000     0.00000000000000     0.00000000000000
   46     0.00000000000000     0.00000000000000     0.00000000000000
   47     0.00000000000000     0.00000000000000     0.00000000000000
   48     0.00000000000000     0.00000000000000     0.00000000000000



Coleman I am return UC_
  ## C Transformation matrix (Symmetry 0) ##
  Irrep: 1 Size: 48 x 48

                 1                   2                   3                   4                   5

    1     1.00000000000000     0.00000000000000     0.00000000000000     0.00000000000000     0.00000000000000
    2     0.00000000000000     1.00000000000000     0.00000000000000     0.00000000000000     0.00000000000000
    3     0.00000000000000     0.00000000000000     0.00000000000000     0.00000000000000     1.00000000000000
    4     0.00000000000000     0.00000000000000     1.00000000000000     0.00000000000000     0.00000000000000
    5     0.00000000000000     0.00000000000000     0.00000000000000     1.00000000000000     0.00000000000000
    6     0.00000000000000     0.00000000000000     0.00000000000000     0.00000000000000     0.00000000000000
    7     0.00000000000000     0.00000000000000     0.00000000000000     0.00000000000000     0.00000000000000
    8     0.00000000000000     0.00000000000000     0.00000000000000     0.00000000000000     0.00000000000000
    9     0.00000000000000     0.00000000000000     0.00000000000000     0.00000000000000     0.00000000000000
   10     0.00000000000000     0.00000000000000     0.00000000000000     0.00000000000000     0.00000000000000
   11     0.00000000000000     0.00000000000000     0.00000000000000     0.00000000000000     0.00000000000000
   12     0.00000000000000     0.00000000000000     0.00000000000000     0.00000000000000     0.00000000000000
   13     0.00000000000000     0.00000000000000     0.00000000000000     0.00000000000000     0.00000000000000
   14     0.00000000000000     0.00000000000000     0.00000000000000     0.00000000000000     0.00000000000000
   15     0.00000000000000     0.00000000000000     0.00000000000000     0.00000000000000     0.00000000000000
   16     0.00000000000000     0.00000000000000     0.00000000000000     0.00000000000000     0.00000000000000
   17     0.00000000000000     0.00000000000000     0.00000000000000     0.00000000000000     0.00000000000000
   18     0.00000000000000     0.00000000000000     0.00000000000000     0.00000000000000     0.00000000000000
   19     0.00000000000000     0.00000000000000     0.00000000000000     0.00000000000000     0.00000000000000
   20     0.00000000000000     0.00000000000000     0.00000000000000     0.00000000000000     0.00000000000000
   21     0.00000000000000     0.00000000000000     0.00000000000000     0.00000000000000     0.00000000000000
   22     0.00000000000000     0.00000000000000     0.00000000000000     0.00000000000000     0.00000000000000
   23     0.00000000000000     0.00000000000000     0.00000000000000     0.00000000000000     0.00000000000000
   24     0.00000000000000     0.00000000000000     0.00000000000000     0.00000000000000     0.00000000000000
   25     0.00000000000000     0.00000000000000     0.00000000000000     0.00000000000000     0.00000000000000
   26     0.00000000000000     0.00000000000000     0.00000000000000     0.00000000000000     0.00000000000000
   27     0.00000000000000     0.00000000000000     0.00000000000000     0.00000000000000     0.00000000000000
   28     0.00000000000000     0.00000000000000     0.00000000000000     0.00000000000000     0.00000000000000
   29     0.00000000000000     0.00000000000000     0.00000000000000     0.00000000000000     0.00000000000000
   30     0.00000000000000     0.00000000000000     0.00000000000000     0.00000000000000     0.00000000000000
   31     0.00000000000000     0.00000000000000     0.00000000000000     0.00000000000000     0.00000000000000
   32     0.00000000000000     0.00000000000000     0.00000000000000     0.00000000000000     0.00000000000000
   33     0.00000000000000     0.00000000000000     0.00000000000000     0.00000000000000     0.00000000000000
   34     0.00000000000000     0.00000000000000     0.00000000000000     0.00000000000000     0.00000000000000
   35     0.00000000000000     0.00000000000000     0.00000000000000     0.00000000000000     0.00000000000000
   36     0.00000000000000     0.00000000000000     0.00000000000000     0.00000000000000     0.00000000000000
   37     0.00000000000000     0.00000000000000     0.00000000000000     0.00000000000000     0.00000000000000
   38     0.00000000000000     0.00000000000000     0.00000000000000     0.00000000000000     0.00000000000000
   39     0.00000000000000     0.00000000000000     0.00000000000000     0.00000000000000     0.00000000000000
   40     0.00000000000000     0.00000000000000     0.00000000000000     0.00000000000000     0.00000000000000
   41     0.00000000000000     0.00000000000000     0.00000000000000     0.00000000000000     0.00000000000000
   42     0.00000000000000     0.00000000000000     0.00000000000000     0.00000000000000     0.00000000000000
   43     0.00000000000000     0.00000000000000     0.00000000000000     0.00000000000000     0.00000000000000
   44     0.00000000000000     0.00000000000000     0.00000000000000     0.00000000000000     0.00000000000000
   45     0.00000000000000     0.00000000000000     0.00000000000000     0.00000000000000     0.00000000000000
   46     0.00000000000000     0.00000000000000     0.00000000000000     0.00000000000000     0.00000000000000
   47     0.00000000000000     0.00000000000000     0.00000000000000     0.00000000000000     0.00000000000000
   48     0.00000000000000     0.00000000000000     0.00000000000000     0.00000000000000     0.00000000000000

                 6                   7                   8                   9                  10

    1     0.00000000000000     0.00000000000000     0.00000000000000     0.00000000000000     0.00000000000000
    2     0.00000000000000     0.00000000000000     0.00000000000000     0.00000000000000     0.00000000000000
    3     0.00000000000000     0.00000000000000     0.00000000000000     0.00000000000000     0.00000000000000
    4     0.00000000000000     0.00000000000000     0.00000000000000     0.00000000000000     0.00000000000000
    5     0.00000000000000     0.00000000000000     0.00000000000000     0.00000000000000     0.00000000000000
    6     1.00000000000000     0.00000000000000     0.00000000000000     0.00000000000000     0.00000000000000
    7     0.00000000000000     0.00000000000000     0.00000000000000     1.00000000000000     0.00000000000000
    8     0.00000000000000     1.00000000000000     0.00000000000000     0.00000000000000     0.00000000000000
    9     0.00000000000000     0.00000000000000     1.00000000000000     0.00000000000000     0.00000000000000
   10     0.00000000000000     0.00000000000000     0.00000000000000     0.00000000000000     1.00000000000000
   11     0.00000000000000     0.00000000000000     0.00000000000000     0.00000000000000     0.00000000000000
   12     0.00000000000000     0.00000000000000     0.00000000000000     0.00000000000000     0.00000000000000
   13     0.00000000000000     0.00000000000000     0.00000000000000     0.00000000000000     0.00000000000000
   14     0.00000000000000     0.00000000000000     0.00000000000000     0.00000000000000     0.00000000000000
   15     0.00000000000000     0.00000000000000     0.00000000000000     0.00000000000000     0.00000000000000
   16     0.00000000000000     0.00000000000000     0.00000000000000     0.00000000000000     0.00000000000000
   17     0.00000000000000     0.00000000000000     0.00000000000000     0.00000000000000     0.00000000000000
   18     0.00000000000000     0.00000000000000     0.00000000000000     0.00000000000000     0.00000000000000
   19     0.00000000000000     0.00000000000000     0.00000000000000     0.00000000000000     0.00000000000000
   20     0.00000000000000     0.00000000000000     0.00000000000000     0.00000000000000     0.00000000000000
   21     0.00000000000000     0.00000000000000     0.00000000000000     0.00000000000000     0.00000000000000
   22     0.00000000000000     0.00000000000000     0.00000000000000     0.00000000000000     0.00000000000000
   23     0.00000000000000     0.00000000000000     0.00000000000000     0.00000000000000     0.00000000000000
   24     0.00000000000000     0.00000000000000     0.00000000000000     0.00000000000000     0.00000000000000
   25     0.00000000000000     0.00000000000000     0.00000000000000     0.00000000000000     0.00000000000000
   26     0.00000000000000     0.00000000000000     0.00000000000000     0.00000000000000     0.00000000000000
   27     0.00000000000000     0.00000000000000     0.00000000000000     0.00000000000000     0.00000000000000
   28     0.00000000000000     0.00000000000000     0.00000000000000     0.00000000000000     0.00000000000000
   29     0.00000000000000     0.00000000000000     0.00000000000000     0.00000000000000     0.00000000000000
   30     0.00000000000000     0.00000000000000     0.00000000000000     0.00000000000000     0.00000000000000
   31     0.00000000000000     0.00000000000000     0.00000000000000     0.00000000000000     0.00000000000000
   32     0.00000000000000     0.00000000000000     0.00000000000000     0.00000000000000     0.00000000000000
   33     0.00000000000000     0.00000000000000     0.00000000000000     0.00000000000000     0.00000000000000
   34     0.00000000000000     0.00000000000000     0.00000000000000     0.00000000000000     0.00000000000000
   35     0.00000000000000     0.00000000000000     0.00000000000000     0.00000000000000     0.00000000000000
   36     0.00000000000000     0.00000000000000     0.00000000000000     0.00000000000000     0.00000000000000
   37     0.00000000000000     0.00000000000000     0.00000000000000     0.00000000000000     0.00000000000000
   38     0.00000000000000     0.00000000000000     0.00000000000000     0.00000000000000     0.00000000000000
   39     0.00000000000000     0.00000000000000     0.00000000000000     0.00000000000000     0.00000000000000
   40     0.00000000000000     0.00000000000000     0.00000000000000     0.00000000000000     0.00000000000000
   41     0.00000000000000     0.00000000000000     0.00000000000000     0.00000000000000     0.00000000000000
   42     0.00000000000000     0.00000000000000     0.00000000000000     0.00000000000000     0.00000000000000
   43     0.00000000000000     0.00000000000000     0.00000000000000     0.00000000000000     0.00000000000000
   44     0.00000000000000     0.00000000000000     0.00000000000000     0.00000000000000     0.00000000000000
   45     0.00000000000000     0.00000000000000     0.00000000000000     0.00000000000000     0.00000000000000
   46     0.00000000000000     0.00000000000000     0.00000000000000     0.00000000000000     0.00000000000000
   47     0.00000000000000     0.00000000000000     0.00000000000000     0.00000000000000     0.00000000000000
   48     0.00000000000000     0.00000000000000     0.00000000000000     0.00000000000000     0.00000000000000

                11                  12                  13                  14                  15

    1     0.00000000000000     0.00000000000000     0.00000000000000     0.00000000000000     0.00000000000000
    2     0.00000000000000     0.00000000000000     0.00000000000000     0.00000000000000     0.00000000000000
    3     0.00000000000000     0.00000000000000     0.00000000000000     0.00000000000000     0.00000000000000
    4     0.00000000000000     0.00000000000000     0.00000000000000     0.00000000000000     0.00000000000000
    5     0.00000000000000     0.00000000000000     0.00000000000000     0.00000000000000     0.00000000000000
    6     0.00000000000000     0.00000000000000     0.00000000000000     0.00000000000000     0.00000000000000
    7     0.00000000000000     0.00000000000000     0.00000000000000     0.00000000000000     0.00000000000000
    8     0.00000000000000     0.00000000000000     0.00000000000000     0.00000000000000     0.00000000000000
    9     0.00000000000000     0.00000000000000     0.00000000000000     0.00000000000000     0.00000000000000
   10     0.00000000000000     0.00000000000000     0.00000000000000     0.00000000000000     0.00000000000000
   11     1.00000000000000     0.00000000000000     0.00000000000000     0.00000000000000     0.00000000000000
   12     0.00000000000000     0.00000000000000     0.00000000000000     1.00000000000000     0.00000000000000
   13     0.00000000000000     1.00000000000000     0.00000000000000     0.00000000000000     0.00000000000000
   14     0.00000000000000     0.00000000000000     1.00000000000000     0.00000000000000     0.00000000000000
   15     0.00000000000000     0.00000000000000     0.00000000000000     0.00000000000000     1.00000000000000
   16     0.00000000000000     0.00000000000000     0.00000000000000     0.00000000000000     0.00000000000000
   17     0.00000000000000     0.00000000000000     0.00000000000000     0.00000000000000     0.00000000000000
   18     0.00000000000000     0.00000000000000     0.00000000000000     0.00000000000000     0.00000000000000
   19     0.00000000000000     0.00000000000000     0.00000000000000     0.00000000000000     0.00000000000000
   20     0.00000000000000     0.00000000000000     0.00000000000000     0.00000000000000     0.00000000000000
   21     0.00000000000000     0.00000000000000     0.00000000000000     0.00000000000000     0.00000000000000
   22     0.00000000000000     0.00000000000000     0.00000000000000     0.00000000000000     0.00000000000000
   23     0.00000000000000     0.00000000000000     0.00000000000000     0.00000000000000     0.00000000000000
   24     0.00000000000000     0.00000000000000     0.00000000000000     0.00000000000000     0.00000000000000
   25     0.00000000000000     0.00000000000000     0.00000000000000     0.00000000000000     0.00000000000000
   26     0.00000000000000     0.00000000000000     0.00000000000000     0.00000000000000     0.00000000000000
   27     0.00000000000000     0.00000000000000     0.00000000000000     0.00000000000000     0.00000000000000
   28     0.00000000000000     0.00000000000000     0.00000000000000     0.00000000000000     0.00000000000000
   29     0.00000000000000     0.00000000000000     0.00000000000000     0.00000000000000     0.00000000000000
   30     0.00000000000000     0.00000000000000     0.00000000000000     0.00000000000000     0.00000000000000
   31     0.00000000000000     0.00000000000000     0.00000000000000     0.00000000000000     0.00000000000000
   32     0.00000000000000     0.00000000000000     0.00000000000000     0.00000000000000     0.00000000000000
   33     0.00000000000000     0.00000000000000     0.00000000000000     0.00000000000000     0.00000000000000
   34     0.00000000000000     0.00000000000000     0.00000000000000     0.00000000000000     0.00000000000000
   35     0.00000000000000     0.00000000000000     0.00000000000000     0.00000000000000     0.00000000000000
   36     0.00000000000000     0.00000000000000     0.00000000000000     0.00000000000000     0.00000000000000
   37     0.00000000000000     0.00000000000000     0.00000000000000     0.00000000000000     0.00000000000000
   38     0.00000000000000     0.00000000000000     0.00000000000000     0.00000000000000     0.00000000000000
   39     0.00000000000000     0.00000000000000     0.00000000000000     0.00000000000000     0.00000000000000
   40     0.00000000000000     0.00000000000000     0.00000000000000     0.00000000000000     0.00000000000000
   41     0.00000000000000     0.00000000000000     0.00000000000000     0.00000000000000     0.00000000000000
   42     0.00000000000000     0.00000000000000     0.00000000000000     0.00000000000000     0.00000000000000
   43     0.00000000000000     0.00000000000000     0.00000000000000     0.00000000000000     0.00000000000000
   44     0.00000000000000     0.00000000000000     0.00000000000000     0.00000000000000     0.00000000000000
   45     0.00000000000000     0.00000000000000     0.00000000000000     0.00000000000000     0.00000000000000
   46     0.00000000000000     0.00000000000000     0.00000000000000     0.00000000000000     0.00000000000000
   47     0.00000000000000     0.00000000000000     0.00000000000000     0.00000000000000     0.00000000000000
[...]
   47     0.03344077166586     0.16102973227593     0.36978495754125     0.00485143014867    -0.14507934566225
   48     0.04638633407460    -0.04142857756357     0.11209221981482    -0.05363605189997    -0.11990590566959

                31                  32                  33                  34                  35

    1     0.03343471698635    -0.07706006629917    -0.01081570916039    -0.00712230906516    -0.01292283937364
    2    -0.10959576720809     0.23972142283014    -0.51293674982146     0.01850044869272    -0.72822271786927
    3    -0.70251152192471    -0.30617579970749     0.07805877666807    -0.20079032517119    -0.29000316070253
    4    -0.21789870584017    -0.39044086581208    -0.53196575649062    -0.20739496950701     0.56738090108997
    5     0.25313528222556     0.39076672517123    -0.21917859236020    -0.85337126174938     0.02941952145721
    6     0.43502425650942    -0.34392213265592     0.83190578921406     0.25385279325100     1.29084812275972
    7     1.20239116817558     0.77145028061935    -0.31749511881432     1.03555849471179     0.74149906320218
    8     0.39408393292714     0.89912455263157     1.07244710445035     0.64449507450521    -0.88626108231664
    9    -0.17263354345514     0.03283621095610    -0.15558216963541     2.59204072613493     0.02433714006210
   10     0.00953741961046     0.04375873499346    -0.04042109065783    -0.04240229373599    -0.01875390787016
   11     0.08774319239624    -0.18515981131894    -0.49473761965348     0.19680070980862    -0.73669720570899
   12    -0.44096385992321     0.33897150430138    -0.13751148098753    -0.00675085170770     0.00235647553931
   13    -0.08582702711685     0.28425697069337    -0.31171255596404     0.18186983345890     0.25744279525619
   14    -0.12316779391374     0.52041931750919    -0.14979651763096    -0.19703431590944     0.27416368415256
   15    -0.24131007612978    -0.25592656069710     1.15384249214525    -1.57511589240655     1.22163196469913
   16     0.46703405721221    -0.58465919835230     0.13615877526216     0.17849568090500     0.16880788407069
   17    -0.31763319216363    -0.32612423095062     0.51002422646057    -0.24336865276608    -0.31683438914854
   18     0.37014651332727    -0.41688941120394     0.41113479615694     0.93502691354574    -0.33988950660159
   19    -0.02930999679623     0.00125474558381     0.02255491656523     0.00473268875373     0.03319694826955
   20     0.24663115902641     0.02162486932846    -0.10997139180350    -0.00060319607095    -0.19938293058389
   21    -0.16291432964453    -0.00570767498828    -0.11742292035462    -0.07329714794353    -0.23944389691266
   22    -0.18139086011575    -0.04041885924788    -0.27127188401547     0.06932346417771    -0.08982054415832
   23    -0.00961085918259     0.15847280908000     0.03349986389997    -0.15702774395815     0.03159605069558
   24    -0.56884751504298    -0.33492809587706    -0.43906077353329    -0.36613892702978    -0.44838713353982
   25    -0.06150661784498     0.11938481024783     0.24900512948594     0.11509603467899     0.33101266532693
   26     0.17072054385183     0.10577904973531     0.08568378189710     0.14719931094657     0.34989275519207
   27     0.13678647292912     0.20113137663100    -0.08149029152194     0.08109485798966    -0.07098804955639
   28    -0.10178903608727     0.18676323327192    -0.22291979286902    -0.29876149596228    -0.32248480446774
   29    -0.22751778890782     0.10946180840336    -0.18839796036453    -0.10955912670384    -0.18030493481027
   30     0.20288032319703     0.08404404319804    -0.48301067908757    -0.01526924177508    -0.20546230589016
   31     0.16527378693127    -0.01642249270368    -0.32231576978341     0.10792933592139     0.12142773762959
   32     0.23304667562396    -0.21233010234520    -0.36846608935552     0.24261385736418    -0.28537883770212
   33     0.13379353465645     0.06999773822757    -0.46529426302579     0.72141346250076     0.37367600418850
   34    -0.00936736855515     0.02514182057499     0.02016099695136     0.02338036809910    -0.05329148007584
   35     0.12843172771618    -0.18962516202640    -0.16224582321540    -0.08985592692785    -0.13805463539691
   36     0.28595275730807     0.30058593897260     0.13053135543946     0.32500160562955     0.01445980035967
   37     0.36640438662277    -0.43305349944477    -0.24300639652247    -0.33528892830582     0.15574146285459
   38    -0.04664853522594     0.05613249045838    -0.39663533748580     0.38908991565816     0.28384035117727
   39    -0.20033090436370     0.39821054926396     0.37524999842287     0.43078576251000     0.10271208939246
   40    -0.79876412626919    -0.79635751888861    -0.25868918953646    -1.07392737697224     0.03245970080280
   41    -0.59573328192685     0.66647627843118     0.19276250171188     0.90067656996363    -0.78981530837280
   42     0.19404878577172    -0.40991935977532     0.89064871946649    -1.34144499347462    -1.00021254173072
   43     0.00363098756974     0.20145626580322     0.06012181146637     0.12682726220935    -0.25668317620861
   44     0.05807549185579     0.39369034828934    -0.17333065720455     0.82787575535871    -0.00654259933310
   45    -0.14339144041697     0.02185323233950    -0.10838832045181     0.07120127849409    -0.23010704268420
   46    -0.15805113507710    -0.07282738990364     0.02628740675228    -0.17418873211127    -0.31471764752942
   47     0.13425966510319    -0.10156465726627     0.08257615876144     0.00761026281771    -0.34936042550242
   48     0.08185908143109    -0.13993493848660     0.36805942852387    -0.36469461442014    -0.51697152622730

                36                  37                  38                  39                  40

    1    -0.01149201666369    -0.02527868863166     0.00428466267087     0.00070152163723     0.00066350611131
    2     0.22264922176029     0.67456681543209    -0.31418475750995    -0.03463918210423     0.07915640000916
    3    -0.43323465675128    -0.51809628910918     0.09529601768577    -0.03040145803662     0.03826054677905
    4     0.40366475520103     0.31748670505147    -0.07698395388255    -0.05307561004110    -0.10471838009284
    5    -0.16888843632634    -0.42157896424312    -0.12476620342612     0.11361314090093    -0.08990275310408
    6    -0.26645555504840    -1.30170008553719     0.66925400493033     0.34322831404221     0.22791873296977
    7     1.62902996524167     0.83417911707999     0.10196638943287     0.08500062817055    -0.09194978955379
    8    -1.92296084184074    -0.79964908724710     0.50409347746880     0.04856046942531     0.63051657856300
    9     0.32234196014573     0.78044270179733     0.60013545242510    -0.14551888106062     0.59738078989646
   10    -0.00433244039577     0.01349491170358     0.04090915370946    -0.00724197695866     0.00350455717385
   11     0.04006968431562     0.01848365886037    -0.92100407740945     0.57874887553024     0.32667316147820
   12     0.57557175534894    -0.23020085025526     0.28566064306753     0.02425329611677    -0.02493479949696
   13    -0.83989705130233     0.23634313579998    -0.14173529258084    -0.10151701538305     0.02845423151265
   14     0.15952088084544    -0.25125267463320    -0.46639143837430     0.15869656802507     0.10246625423772
   15     0.04213758707466    -0.10411363450627     1.47874939277291    -1.08373335826848    -1.16100454228337
   16    -1.72397505599074     0.21433646606839    -0.14094622404062    -0.16465808532353     0.25798180566621
   17     2.34792411480186    -0.17281623900848     0.22990598615100     0.11411628484466    -0.25201263626135
   18    -0.44289375222348     0.44708032948287     0.70109881218606    -0.12497683117228     0.20190017198744
   19    -0.00091123533247    -0.00400233432323     0.01897824385367     0.00658158262535    -0.00452574624789
   20     0.01426001461198    -0.00200863672483    -0.06941806882478    -0.07951112434504     0.05579396723213
   21     0.02215357913246     0.20967810155020    -0.26193677459721     0.01127783862217    -0.05585438952796
   22    -0.04534074290658    -0.08892655473662    -0.02113264591218    -0.00477744451501     0.14203442864948
   23    -0.02111159278196     0.14123086173368     0.16169197841211     0.08442402992726    -0.03569751769615
   24    -0.03499451415188     0.16698861702686    -0.36816652383784     0.14503077963682    -0.09003805298422
   25    -0.01268819946965    -0.39391866822105     0.48495815357395    -0.02945478841840     0.08852453657272
   26     0.01629320149204     0.17387084169198     0.12511109732261     0.02102759575976    -0.12511668592203
   27     0.04559667660680    -0.21057789880125    -0.24048598348665     0.04777423908434     0.10949762714827
   28    -0.27522182912192     0.46562035323893     0.32960363261045    -0.20939522202834    -0.22428322132932
   29     1.62934409222961    -0.70642645440257    -0.71246484927193     0.55089925694910     0.18377560874543
   30     0.18866330449514    -0.14270566536003     0.83742223881857    -0.12362230335521     0.14681577184838
   31    -1.63973909815969     0.23566975548450    -1.35000020880957     0.27169820645819     0.24245763434723
   32    -0.01195919071002    -0.68374606714931     0.13530334432027     0.03277224970060     0.02723112250905
   33     1.28577945672009     1.77991056185968    -0.16182802983204    -0.15565469083264    -0.05469168701167
   34     0.00226864837857     0.00763800598361    -0.00072614987840    -0.01929600263870    -0.04073589469657
   35     0.19076497209160    -0.15220535313991    -0.14147579306303     0.47698374465844     0.99544642176995
   36     0.15621433371126    -0.34156881433996    -0.24371769037968    -0.43072031867822    -0.13248437656303
   37    -0.05980761444772    -0.03891425008860    -0.03806255827174    -0.45051860733637    -0.11202384768950
   38    -0.18887217128736    -0.21687309772359     0.06227816105889     0.40962931578599    -0.54733694001795
   39    -1.57401026252794     0.07025673516048     0.49118353601757    -0.94352667148161    -1.37250762075143
   40    -0.34469634594191     0.44236260578081     0.00547018213379     0.47963118164700    -0.00534386825057
   41    -0.43736416862838    -0.00189962950566     0.18986427829304     0.45200536956434     0.38876965183889
   42     0.11958772539563     0.20026762057453    -0.26675879615889    -0.39572470119396     0.53725083636989
   43    -0.08040123915239     0.22549141779104     0.28593599127779    -0.27740221795131     0.31594440527673
   44     0.24894667477891    -0.54609126572764    -0.15459732724733     0.43250708354914    -0.22933040087822
   45     0.12478743702385    -0.20711922659970    -0.36480647561866    -0.87792758359689    -0.52492231804022
   46    -0.20844196808657     0.39413894744988     0.33683932960293     1.35458186501655     0.85216080977935
   47     0.02423929659657     0.06685777036440     0.12712784881497     0.62932467244096    -0.90258216676211
   48     0.35492480614455    -0.03375721944287    -0.33800774790555    -0.82583241001000     1.38080487915621

                41                  42                  43                  44                  45

    1     0.00333416217637    -0.02652533622259     0.00841723874417    -0.01247652549747     0.01270543037864
    2     0.13741569225806    -0.50248664807820     0.45109978469602    -0.90419673331451    -0.14160013758940
    3    -0.02248993393760    -0.04540225323212    -0.10775880115072    -0.02549979328797    -0.13124261452608
    4     0.03283801129236    -0.13313180555520    -0.12284210928443     0.01292810787072     0.12441456016232
    5     0.10976212926123    -0.09209258995364     0.06819684378707    -0.01828827997275     0.02268726644858
    6    -0.59922805338665     0.73715173380948    -1.96336609969864     1.30988644356526    -0.02765729757177
    7     0.04516784238092    -0.83138063413829    -0.04756194978475     0.59813563680173     1.11675573335639
    8    -0.06252244439126     1.41702517260793     0.34993070846506    -0.48092865651834    -0.55659282825003
    9    -0.34473132577355     0.47301203535620    -1.14719167649487     0.74821121965313     0.53210944817702
   10    -0.02220761063634     0.00560064987735    -0.04055583744174    -0.01342662622584     0.00413487131779
   11     0.15293325780133     0.40285210706918    -1.33040040288703    -0.33822847340507     0.17110809877011
   12     0.03276690586543    -0.02974686704315    -0.02808430783500    -0.00525154130796    -0.00512859864067
   13    -0.04223160890499    -0.19186028179959    -0.05856768692718    -0.03267254344125    -0.02591125937640
   14     0.32129050150186    -0.01234191352901    -0.02406079184790     0.06241277524262    -0.03978209614552
   15    -0.18393772246386    -1.36434025351096     3.14443949638187    -0.17567743953891    -0.45964639890191
   16    -0.08534907297827     0.52211787927005    -0.26712515053996     0.01328155637366    -0.98928240201589
   17    -0.11271533004611    -0.05340992946132    -0.22087546565756     0.34278250803265     1.40674455423296
   18    -0.69145182559225     0.67558479793180    -0.49765530665779     0.26969690830296    -0.00032428029364
   19     0.00626148886955    -0.02081951883214    -0.02485992471712    -0.02066510633359     0.00196406431403
   20    -0.07021556942125     0.15950129404061     0.25447149310325     0.23677978867907     0.00646287135345
   21    -0.09459967089253     0.14906571085752     0.20501885611507     0.68313076975940    -0.30019562009311
   22     0.04081495663888     0.60041831767158     0.32781853631255    -0.16564718430759     0.38725227640377
   23    -0.14444652680558     0.26145399073383    -0.64688314902687     0.12905513243463     0.01642012725895
   24     0.04191273552006    -0.06984991440644    -0.35093438248846    -0.50168746852246    -0.14183195482723
   25     0.09113918439992    -0.17197924985887    -0.26271091928101    -0.89571596784033     0.48369375375622
   26    -0.01788281041343    -0.88944931982121    -0.53976046761316     0.35455880850288    -0.54732971620156
   27     0.18268897036358    -0.23115737816045     0.70595450879035    -0.15757909350286     0.06230488272630
   28    -0.54610368148238    -0.28645049335674    -0.00222672775115     0.02413027508720     0.67792471223902
   29     0.85028647440835     0.12289823361364    -0.54034884796768    -0.02002954447828     0.24806740239005
   30    -0.08332429296784     0.36254507928283    -0.05915536398963    -0.01467087437498    -0.64882731685811
   31     0.25880282129163    -0.02312091691157    -0.55581181152749    -0.23030399034502    -0.29499211638618
   32     0.09254970073597    -0.58016566294977    -0.11010145296383     0.57694203460135     0.54076916899170
   33    -0.00444891982419    -0.32526276311499    -0.03311992911976    -0.24173648251607     0.28585476674433
   34     0.03486142127976    -0.02956341092757    -0.00947538644485    -0.02161621702848    -0.02884176988463
   35    -0.90036545875589    -0.77288525356273     0.13262649921671    -0.56406220910375    -0.73407123104331
   36    -0.50749769572845     0.13239119432679    -0.09495761675495    -0.10693756000885     0.12961018712726
   37     0.27950672018206     0.13687532439072    -0.05715256815063    -0.17982017901796    -0.07976463631925
   38    -0.07219242712155     0.05950301342870     0.11455597458882    -0.05168583617446    -0.22507985316774
   39     1.78104877292647     2.59585758573629     0.15737667702002     0.64164799681095     1.10218610046584
   40     0.64654317057072    -0.27329597668976     0.11902493874167     0.02704616394068    -0.81783625823533
   41    -0.35987027436441     0.02712439479553     0.17386296256190     0.07320463201073    -0.22535254275207
   42     0.02653563374572     0.20089559905431     0.24278757092095    -0.57382077827998     0.20160945475825
   43     0.96212514786305    -0.21433996024997    -0.12773134863618     0.08219174777897    -0.00663238584371
   44    -1.61462460985682    -0.27909504009336     0.01370545841952    -0.13137833574678    -0.09459455003529
   45    -0.07257132755348    -0.08138908181334    -0.20277772956326    -0.22468322352901    -0.35850841174598
   46     0.04079456300658    -0.61679549478678     0.35770860611538    -0.00133038095354    -0.50551496164679
   47     0.20256459977388    -0.05062585192513     0.09457514687433    -0.26665485199405    -0.10519939662355
   48    -0.56315058630131    -0.26922654558914    -0.07902050114437    -0.33584028833604     0.07394277272767

                46                  47                  48

    1     0.00761955715824    -0.14183421990887     0.02751253036470
    2     0.10380458369541    -2.17046843805901     0.03053748815955
    3     0.07351158295583    -0.15564519089644    -0.26403193848755
    4    -0.05553799919422     0.18285224720188    -0.23835729104501
    5     0.01632303456433    -0.09941979258892    -0.00901289135020
    6     0.04008758711662     8.08489451581890    -1.27966098810933
    7    -0.44271551225541     1.99295839686770    -0.58550150134461
    8     1.85006867811906    -1.05411759049050    -0.40480963138884
    9     0.96611094335049     1.43213643483320    -0.20014426047809
   10     0.06175306160269     0.06318752439069     0.02103757632367
   11     1.01966010038447     0.79417965761467    -0.07351775152989
   12    -0.01288356823229     0.00712462971443    -0.29038970402055
   13    -0.10818197771829     0.08449791119273    -0.17080239432358
   14    -0.10783117481786     0.12353028247930     0.16829787174324
   15    -3.28147880719666    -4.61779191726430    -0.90575743956445
   16    -0.08424307103964    -0.59212763088857    -0.35129430491040
   17    -0.46393860531572     0.80647173372080    -0.21778784104739
   18     1.13876255214600     1.33641248610385     0.25990796796626
   19     0.00236659161845     0.00373265228523     0.03583959157904
   20    -0.18310764575073     0.11870936727210    -1.83052855473148
   21    -0.08596842704247     0.00401702466303     0.30704448017943
   22    -0.33166539666478     0.06113048431689     0.20715561909609
   23    -0.49052403753938    -0.36074016024681    -0.06593985615810
   24     0.71623281667729    -0.79742193420398     3.46564526152059
   25     0.05780358584280     0.21880770552086    -1.26193945230114
   26     0.40311188274903     0.41567206682913    -0.85887844703343
   27     1.15874745468390     1.37818934550993     0.28058484188229
   28     0.14549258258484     0.47137504171326     0.14454918519383
   29     0.01260896923588     0.41047165737003     0.02015793058305
   30     0.43235223525297     0.14173139087774     0.14079100944182
   31     0.22126979449636    -0.00006965064566     0.04081613523563
   32    -0.19111747289685    -0.32526044945632     0.15742007198953
   33    -0.24180704887789     0.19659564754394    -0.00355709363787
   34    -0.08287985728721     0.09208766203662     0.00062781647085
   35    -1.42633396762756     0.98420991954028     0.17375478329212
   36    -0.00162254573530    -0.00720120965705     0.07102694226595
   37    -0.17674533346690    -0.11180806571885     0.12201391996529
   38    -0.06926077072104    -0.09215886347245     0.01103801300524
   39     4.26504917029768    -4.72558798981535    -0.13804629074975
   40    -0.02151126701259    -0.17246081194190    -0.05614877650433
   41     0.94826475156978    -1.26347803735828    -0.05458298481504
   42     0.37368533228336    -0.80480921652105     0.10425868948288
   43    -0.45097013457611     0.43739905172848     0.02426500378504
   44    -0.38136598904740     0.53176695711547     0.03062900093931
   45    -0.30945154368713     0.28449432813558     0.05573912844460
   46    -0.29927111698465     0.12704974528183    -0.13423618970850
   47    -0.39326932433446     0.37167216440269    -0.02370601289509
   48    -0.37192552693452     0.21718218743053     0.21232893388496




*** Psi4 exiting successfully. Buy a developer a beer!
